
                                 *****************
                                 * O   R   C   A *
                                 *****************

           --- An Ab Initio, DFT and Semiempirical electronic structure package ---

                  #######################################################
                  #                        -***-                        #
                  #          Department of theory and spectroscopy      #
                  #               Directorship: Frank Neese             #
                  #        Max Planck Institute fuer Kohlenforschung    #
                  #                Kaiser Wilhelm Platz 1               #
                  #                 D-45470 Muelheim/Ruhr               #
                  #                      Germany                        #
                  #                                                     #
                  #                  All rights reserved                #
                  #                        -***-                        #
                  #######################################################


                         Program Version 4.2.1 -  RELEASE  -


 With contributions from (in alphabetic order):
   Daniel Aravena         : Magnetic Suceptibility
   Michael Atanasov       : Ab Initio Ligand Field Theory (pilot matlab implementation)
   Alexander A. Auer      : GIAO ZORA, VPT2
   Ute Becker             : Parallelization
   Giovanni Bistoni       : ED, misc. LED, open-shell LED, HFLD
   Martin Brehm           : Molecular dynamics
   Dmytro Bykov           : SCF Hessian
   Vijay G. Chilkuri      : MRCI spin determinant printing, contributions to CSF-ICE
   Dipayan Datta          : RHF DLPNO-CCSD density
   Achintya Kumar Dutta   : EOM-CC, STEOM-CC
   Dmitry Ganyushin       : Spin-Orbit,Spin-Spin,Magnetic field MRCI
   Miquel Garcia          : C-PCM Hessian, Gaussian charge scheme
   Yang Guo               : DLPNO-NEVPT2, CIM, IAO-localization
   Andreas Hansen         : Spin unrestricted coupled pair/coupled cluster methods
   Benjamin Helmich-Paris : CASSCF linear response (MC-RPA)
   Lee Huntington         : MR-EOM, pCC
   Robert Izsak           : Overlap fitted RIJCOSX, COSX-SCS-MP3, EOM
   Christian Kollmar      : KDIIS, OOCD, Brueckner-CCSD(T), CCSD density
   Simone Kossmann        : Meta GGA functionals, TD-DFT gradient, OOMP2, MP2 Hessian
   Martin Krupicka        : AUTO-CI
   Lucas Lang             : DCDCAS
   Dagmar Lenk            : GEPOL surface, SMD
   Dimitrios Liakos       : Extrapolation schemes; Compound Job, initial MDCI parallelization
   Dimitrios Manganas     : Further ROCIS development; embedding schemes
   Dimitrios Pantazis     : SARC Basis sets
   Taras Petrenko         : DFT Hessian,TD-DFT gradient, ASA, ECA, R-Raman, ABS, FL, XAS/XES, NRVS
   Peter Pinski           : DLPNO-MP2, DLPNO-MP2 Gradient
   Christoph Reimann      : Effective Core Potentials
   Marius Retegan         : Local ZFS, SOC
   Christoph Riplinger    : Optimizer, TS searches, QM/MM, DLPNO-CCSD(T), (RO)-DLPNO pert. Triples
   Tobias Risthaus        : Range-separated hybrids, TD-DFT gradient, RPA, STAB
   Michael Roemelt        : Original ROCIS implementation
   Masaaki Saitow         : Open-shell DLPNO-CCSD energy and density
   Barbara Sandhoefer     : DKH picture change effects
   Avijit Sen             : IP-ROCIS
   Kantharuban Sivalingam : CASSCF convergence, NEVPT2, FIC-MRCI
   Bernardo de Souza      : ESD, SOC TD-DFT
   Georgi Stoychev        : AutoAux, RI-MP2 NMR
   Willem Van den Heuvel  : Paramagnetic NMR
   Boris Wezisla          : Elementary symmetry handling
   Frank Wennmohs         : Technical directorship


 We gratefully acknowledge several colleagues who have allowed us to
 interface, adapt or use parts of their codes:
   Stefan Grimme, W. Hujo, H. Kruse,             : VdW corrections, initial TS optimization,
                  C. Bannwarth                     DFT functionals, gCP, sTDA/sTD-DF
   Ed Valeev, F. Pavosevic, A. Kumar             : LibInt (2-el integral package), F12 methods
   Garnet Chan, S. Sharma, J. Yang, R. Olivares  : DMRG
   Ulf Ekstrom                                   : XCFun DFT Library
   Mihaly Kallay                                 : mrcc  (arbitrary order and MRCC methods)
   Andreas Klamt, Michael Diedenhofen            : otool_cosmo (COSMO solvation model)
   Jiri Pittner, Ondrej Demel                    : Mk-CCSD
   Frank Weinhold                                : gennbo (NPA and NBO analysis)
   Christopher J. Cramer and Donald G. Truhlar   : smd solvation model
   Lars Goerigk                                  : TD-DFT with DH, B97 family of functionals
   V. Asgeirsson, H. Jonsson                     : NEB implementation
   FAccTs GmbH                                   : IRC, NEB, NEB-TS, Multilevel, MM, QM/MM, CI optimization
   S Lehtola, MJT Oliveira, MAL Marques          : LibXC Library


 Your calculation uses the libint2 library for the computation of 2-el integrals
 For citations please refer to: http://libint.valeyev.net

 Your ORCA version has been built with support for libXC version: 4.2.3
 For citations please refer to: https://tddft.org/programs/libxc/

 This ORCA versions uses:
   CBLAS   interface :  Fast vector & matrix operations
   LAPACKE interface :  Fast linear algebra routines
   SCALAPACK package :  Parallel linear algebra routines


----- Orbital basis set information -----
Your calculation utilizes the basis: def2-SVP
   F. Weigend and R. Ahlrichs, Phys. Chem. Chem. Phys. 7, 3297 (2005).

----- AuxC basis set information -----
Your calculation utilizes the auxiliary basis: def2-SVP/C
  H-La, Hf-Rn : A. Hellweg, C. Hattig, S. Hofener and W. Klopper, Theor. Chem. Acc. 117, 587 (2007).
        Ce-Lu : J. Chmela and M. E. Harding, Mol. Phys. (2018).

================================================================================
                                        WARNINGS
                       Please study these warnings very carefully!
================================================================================


WARNING: PNO calculations with unrestricted orbitals require UNOs
  ===> : Switching on UNOs

WARNING: Unrestricted DLPNO-CCSD(T0/T) with FullLMP2-Guess requested.
         This is not yet implemented.
         When comparing energies between closed and open shell calculations:
  ===> : Be aware to set UseFullLMP2Guess to false for the corresponding closed shell calculations.
         Note that UseFullLMP2Guess is done by default only for TightPNO closed shell calculations.


WARNING: MDCI localization with Augmented Hessian Foster-Boys
  ===> : Switching off randomization!

WARNING: Post HF methods need fully converged wavefunctions
  ===> : Setting SCFConvForced true
         You can overwrite this default with %scf ConvForced false 


INFO   : the flag for use of LIBINT has been found!

================================================================================
                                       INPUT FILE
================================================================================
NAME = id0.in
|  1> !uHF dlpno-ccsd(t) def2-svp def2-svp/c TightSCF NormalPNO
|  2> !sp 
|  3> 
|  4> %maxcore 3900
|  5> %pal
|  6> nprocs 22
|  7> end
|  8> 
|  9> * xyz 0 2
| 10> O   0.2563070000  -0.4066480000   2.3171350000
| 11> C   0.2977050000  -1.2598050000   1.2456390000
| 12> O  -0.5399490000  -0.8502010000   0.1766180000
| 13> O  -0.0700860000   0.3354910000  -0.3245110000
| 14> H   0.6374370000   0.4324560000   2.0342470000
| 15> H  -0.1088170000  -2.2350170000   1.5445460000
| 16> H   1.3204940000  -1.3908460000   0.8386640000
| 17> C  -0.0591110000  -1.9884480000  -2.8310660000
| 18> C   1.1064630000  -1.1039680000  -3.2613840000
| 19> C  -1.1494120000  -2.3048020000  -3.8390540000
| 20> C  -1.4439560000  -1.3925450000  -2.6961280000
| 21> C   2.1977750000  -1.8458380000  -4.0263160000
| 22> C   1.6713890000  -0.3467510000  -2.0606490000
| 23> C   0.3089730000  -3.0268250000  -1.8897980000
| 24> H   0.6797630000  -0.3033960000  -3.8935350000
| 25> H  -1.5692490000  -3.3123520000  -3.8270480000
| 26> H  -1.0201020000  -1.8765090000  -4.8363240000
| 27> H  -1.5223600000  -0.3182020000  -2.8757010000
| 28> H  -2.0550320000  -1.7522840000  -1.8676690000
| 29> H   3.0032000000  -1.1601850000  -4.3207950000
| 30> H   2.6370170000  -2.6399890000  -3.4047800000
| 31> H   1.7757200000  -2.3079040000  -4.9298110000
| 32> O   2.8089520000  -0.0823150000  -1.8658140000
| 33> H   0.7571080000   0.0322060000  -1.1907300000
| 34> N   0.6445430000  -3.8344570000  -1.1322020000
| 35> 
| 36> **                         ****END OF INPUT****
================================================================================

                       ****************************
                       * Single Point Calculation *
                       ****************************

---------------------------------
CARTESIAN COORDINATES (ANGSTROEM)
---------------------------------
  O      0.256307   -0.406648    2.317135
  C      0.297705   -1.259805    1.245639
  O     -0.539949   -0.850201    0.176618
  O     -0.070086    0.335491   -0.324511
  H      0.637437    0.432456    2.034247
  H     -0.108817   -2.235017    1.544546
  H      1.320494   -1.390846    0.838664
  C     -0.059111   -1.988448   -2.831066
  C      1.106463   -1.103968   -3.261384
  C     -1.149412   -2.304802   -3.839054
  C     -1.443956   -1.392545   -2.696128
  C      2.197775   -1.845838   -4.026316
  C      1.671389   -0.346751   -2.060649
  C      0.308973   -3.026825   -1.889798
  H      0.679763   -0.303396   -3.893535
  H     -1.569249   -3.312352   -3.827048
  H     -1.020102   -1.876509   -4.836324
  H     -1.522360   -0.318202   -2.875701
  H     -2.055032   -1.752284   -1.867669
  H      3.003200   -1.160185   -4.320795
  H      2.637017   -2.639989   -3.404780
  H      1.775720   -2.307904   -4.929811
  O      2.808952   -0.082315   -1.865814
  H      0.757108    0.032206   -1.190730
  N      0.644543   -3.834457   -1.132202

----------------------------
CARTESIAN COORDINATES (A.U.)
----------------------------
  NO LB      ZA    FRAG     MASS         X           Y           Z
   0 O     8.0000    0    15.999    0.484350   -0.768453    4.378751
   1 C     6.0000    0    12.011    0.562581   -2.380686    2.353917
   2 O     8.0000    0    15.999   -1.020356   -1.606647    0.333760
   3 O     8.0000    0    15.999   -0.132443    0.633986   -0.613237
   4 H     1.0000    0     1.008    1.204581    0.817223    3.844170
   5 H     1.0000    0     1.008   -0.205634   -4.223570    2.918769
   6 H     1.0000    0     1.008    2.495372   -2.628318    1.584845
   7 C     6.0000    0    12.011   -0.111704   -3.757622   -5.349939
   8 C     6.0000    0    12.011    2.090912   -2.086197   -6.163123
   9 C     6.0000    0    12.011   -2.172074   -4.355445   -7.254761
  10 C     6.0000    0    12.011   -2.728681   -2.631529   -5.094944
  11 C     6.0000    0    12.011    4.153193   -3.488128   -7.608635
  12 C     6.0000    0    12.011    3.158467   -0.655264   -3.894062
  13 C     6.0000    0    12.011    0.583874   -5.719870   -3.571201
  14 H     1.0000    0     1.008    1.284566   -0.573335   -7.357715
  15 H     1.0000    0     1.008   -2.965451   -6.259438   -7.232073
  16 H     1.0000    0     1.008   -1.927713   -3.546088   -9.139328
  17 H     1.0000    0     1.008   -2.876843   -0.601315   -5.434287
  18 H     1.0000    0     1.008   -3.883448   -3.311337   -3.529383
  19 H     1.0000    0     1.008    5.675226   -2.192432   -8.165119
  20 H     1.0000    0     1.008    4.983240   -4.988856   -6.434102
  21 H     1.0000    0     1.008    3.355624   -4.361307   -9.315993
  22 O     8.0000    0    15.999    5.308150   -0.155553   -3.525877
  23 H     1.0000    0     1.008    1.430727    0.060861   -2.250154
  24 N     7.0000    0    14.007    1.218010   -7.246074   -2.139552

--------------------------------
INTERNAL COORDINATES (ANGSTROEM)
--------------------------------
 O      0   0   0     0.000000000000     0.00000000     0.00000000
 C      1   0   0     1.370289874103     0.00000000     0.00000000
 O      2   1   0     1.418536414398   113.05805045     0.00000000
 O      3   2   1     1.370316398601   108.84250208    64.93578002
 H      1   2   3     0.964044200366   107.48898094   293.98389865
 H      2   1   3     1.098018203891   109.20355953   244.66537255
 H      2   1   3     1.108556598838   112.86379656   122.41448546
 C      3   2   1     3.251611055940   120.57551037   160.44332628
 C      8   3   2     1.525136453240    99.84527890   280.74685273
 C      8   3   2     1.518181784919   125.51252934   144.25351071
 C     10   8   3     1.491726799203    60.37456841    20.01896518
 C      9   8   3     1.525271760333   113.96844865   138.13585229
 C      9   8   3     1.527836218575   110.38111974    11.41818443
 C      8   3   2     1.449033496165    71.79370104    32.79259059
 H      9   8   3     1.105713934065   106.63512679   259.66540794
 H     10   8   3     1.091587950238   117.46750181   270.94177275
 H     10   8   3     1.093024895805   116.05070000   129.90885213
 H     11  10   8     1.092065259586   119.32810808   105.13451409
 H     11  10   8     1.090490871387   119.40491000   253.94199387
 H     12   9   8     1.097974202099   110.83148255   179.31283592
 H     12   9   8     1.099961974189   110.70127326   299.16492631
 H     12   9   8     1.099062612596   109.99852448    58.84164509
 O     13   9   8     1.184034059599   126.53070360   144.08481787
 H      4   3   2     1.235543224991   105.87594864    88.34891795
 N     14   8   3     1.157077513194   177.65944307   279.24103047

---------------------------
INTERNAL COORDINATES (A.U.)
---------------------------
 O      0   0   0     0.000000000000     0.00000000     0.00000000
 C      1   0   0     2.589472586140     0.00000000     0.00000000
 O      2   1   0     2.680645334207   113.05805045     0.00000000
 O      3   2   1     2.589522710177   108.84250208    64.93578002
 H      1   2   3     1.821779519688   107.48898094   293.98389865
 H      2   1   3     2.074953695415   109.20355953   244.66537255
 H      2   1   3     2.094868375755   112.86379656   122.41448546
 C      3   2   1     6.144654389756   120.57551037   160.44332628
 C      8   3   2     2.882090213483    99.84527890   280.74685273
 C      8   3   2     2.868947795005   125.51252934   144.25351071
 C     10   8   3     2.818955117125    60.37456841    20.01896518
 C      9   8   3     2.882345906833   113.96844865   138.13585229
 C      9   8   3     2.887192030593   110.38111974    11.41818443
 C      8   3   2     2.738276466631    71.79370104    32.79259059
 H      9   8   3     2.089496517843   106.63512679   259.66540794
 H     10   8   3     2.062802277038   117.46750181   270.94177275
 H     10   8   3     2.065517710629   116.05070000   129.90885213
 H     11  10   8     2.063704260987   119.32810808   105.13451409
 H     11  10   8     2.060729098462   119.40491000   253.94199387
 H     12   9   8     2.074870544078   110.83148255   179.31283592
 H     12   9   8     2.078626888944   110.70127326   299.16492631
 H     12   9   8     2.076927341838   109.99852448    58.84164509
 O     13   9   8     2.237500105877   126.53070360   144.08481787
 H      4   3   2     2.334838321855   105.87594864    88.34891795
 N     14   8   3     2.186559615656   177.65944307   279.24103047

---------------------
BASIS SET INFORMATION
---------------------
There are 4 groups of distinct atoms

 Group   1 Type O   : 7s4p1d contracted to 3s2p1d pattern {511/31/1}
 Group   2 Type C   : 7s4p1d contracted to 3s2p1d pattern {511/31/1}
 Group   3 Type H   : 4s1p contracted to 2s1p pattern {31/1}
 Group   4 Type N   : 7s4p1d contracted to 3s2p1d pattern {511/31/1}

Atom   0O    basis set group =>   1
Atom   1C    basis set group =>   2
Atom   2O    basis set group =>   1
Atom   3O    basis set group =>   1
Atom   4H    basis set group =>   3
Atom   5H    basis set group =>   3
Atom   6H    basis set group =>   3
Atom   7C    basis set group =>   2
Atom   8C    basis set group =>   2
Atom   9C    basis set group =>   2
Atom  10C    basis set group =>   2
Atom  11C    basis set group =>   2
Atom  12C    basis set group =>   2
Atom  13C    basis set group =>   2
Atom  14H    basis set group =>   3
Atom  15H    basis set group =>   3
Atom  16H    basis set group =>   3
Atom  17H    basis set group =>   3
Atom  18H    basis set group =>   3
Atom  19H    basis set group =>   3
Atom  20H    basis set group =>   3
Atom  21H    basis set group =>   3
Atom  22O    basis set group =>   1
Atom  23H    basis set group =>   3
Atom  24N    basis set group =>   4
---------------------------------
AUXILIARY/C BASIS SET INFORMATION
---------------------------------
There are 4 groups of distinct atoms

 Group   1 Type O   : 8s6p5d3f contracted to 6s5p4d1f pattern {311111/21111/2111/3}
 Group   2 Type C   : 8s6p5d3f contracted to 6s5p4d1f pattern {311111/21111/2111/3}
 Group   3 Type H   : 4s3p2d contracted to 3s2p1d pattern {211/21/2}
 Group   4 Type N   : 8s6p5d3f contracted to 6s5p4d1f pattern {311111/21111/2111/3}

Atom   0O    basis set group =>   1
Atom   1C    basis set group =>   2
Atom   2O    basis set group =>   1
Atom   3O    basis set group =>   1
Atom   4H    basis set group =>   3
Atom   5H    basis set group =>   3
Atom   6H    basis set group =>   3
Atom   7C    basis set group =>   2
Atom   8C    basis set group =>   2
Atom   9C    basis set group =>   2
Atom  10C    basis set group =>   2
Atom  11C    basis set group =>   2
Atom  12C    basis set group =>   2
Atom  13C    basis set group =>   2
Atom  14H    basis set group =>   3
Atom  15H    basis set group =>   3
Atom  16H    basis set group =>   3
Atom  17H    basis set group =>   3
Atom  18H    basis set group =>   3
Atom  19H    basis set group =>   3
Atom  20H    basis set group =>   3
Atom  21H    basis set group =>   3
Atom  22O    basis set group =>   1
Atom  23H    basis set group =>   3
Atom  24N    basis set group =>   4


           ************************************************************
           *        Program running with 22 parallel MPI-processes    *
           *              working on a common directory               *
           ************************************************************
------------------------------------------------------------------------------
                           ORCA GTO INTEGRAL CALCULATION
------------------------------------------------------------------------------

                         BASIS SET STATISTICS AND STARTUP INFO

 # of primitive gaussian shells          ...  216
 # of primitive gaussian functions       ...  396
 # of contracted shells                  ...  114
 # of contracted basis functions         ...  242
 Highest angular momentum                ...    2
 Maximum contraction depth               ...    5
 Integral package used                   ... LIBINT
 Integral threshhold            Thresh   ...  2.500e-11
 Primitive cut-off              TCut     ...  2.500e-12


------------------------------ INTEGRAL EVALUATION ----------------------------


 * One electron integrals 
 Pre-screening matrix                    ... done
 Shell pair data                         ... done (   0.002 sec)



           ************************************************************
           *        Program running with 22 parallel MPI-processes    *
           *              working on a common directory               *
           ************************************************************
-------------------------------------------------------------------------------
                                 ORCA SCF
-------------------------------------------------------------------------------

------------
SCF SETTINGS
------------
Hamiltonian:
 Ab initio Hamiltonian  Method          .... Hartree-Fock(GTOs)


General Settings:
 Integral files         IntName         .... id0
 Hartree-Fock type      HFTyp           .... UHF
 Total Charge           Charge          ....    0
 Multiplicity           Mult            ....    2
 Number of Electrons    NEL             ....   99
 Basis Dimension        Dim             ....  242
 Nuclear Repulsion      ENuc            ....    826.4991971562 Eh

Convergence Acceleration:
 DIIS                   CNVDIIS         .... on
   Start iteration      DIISMaxIt       ....    12
   Startup error        DIISStart       ....  0.200000
   # of expansion vecs  DIISMaxEq       ....     5
   Bias factor          DIISBfac        ....   1.050
   Max. coefficient     DIISMaxC        ....  10.000
 Newton-Raphson         CNVNR           .... off
 SOSCF                  CNVSOSCF        .... off
 Level Shifting         CNVShift        .... on
   Level shift para.    LevelShift      ....    0.2500
   Turn off err/grad.   ShiftErr        ....    0.0010
 Zerner damping         CNVZerner       .... off
 Static damping         CNVDamp         .... on
   Fraction old density DampFac         ....    0.7000
   Max. Damping (<1)    DampMax         ....    0.9800
   Min. Damping (>=0)   DampMin         ....    0.0000
   Turn off err/grad.   DampErr         ....    0.1000
 Fernandez-Rico         CNVRico         .... off

SCF Procedure:
 Maximum # iterations   MaxIter         ....   125
 SCF integral mode      SCFMode         .... Direct
   Integral package                     .... LIBINT
 Reset frequency        DirectResetFreq ....    20
 Integral Threshold     Thresh          ....  2.500e-11 Eh
 Primitive CutOff       TCut            ....  2.500e-12 Eh

Convergence Tolerance:
 Convergence Check Mode ConvCheckMode   .... Total+1el-Energy
 Convergence forced     ConvForced      .... 1
 Energy Change          TolE            ....  1.000e-08 Eh
 1-El. energy change                    ....  1.000e-05 Eh
 DIIS Error             TolErr          ....  5.000e-07


Diagonalization of the overlap matrix:
Smallest eigenvalue                        ... 5.361e-04
Time for diagonalization                   ...    0.009 sec
Threshold for overlap eigenvalues          ... 1.000e-08
Number of eigenvalues below threshold      ... 0
Time for construction of square roots      ...    0.007 sec
Total time needed                          ...    0.016 sec

-------------------
DFT GRID GENERATION
-------------------

General Integration Accuracy     IntAcc      ...  4.340
Radial Grid Type                 RadialGrid  ... Gauss-Chebyshev
Angular Grid (max. acc.)         AngularGrid ... Lebedev-110
Angular grid pruning method      GridPruning ... 3 (G Style)
Weight generation scheme         WeightScheme... Becke
Basis function cutoff            BFCut       ...    1.0000e-11
Integration weight cutoff        WCut        ...    1.0000e-14
Grids for H and He will be reduced by one unit

# of grid points (after initial pruning)     ...  31342 (   0.0 sec)
# of grid points (after weights+screening)   ...  28417 (   0.0 sec)
nearest neighbour list constructed           ...    0.0 sec
Grid point re-assignment to atoms done       ...    0.0 sec
Grid point division into batches done        ...    0.0 sec
Reduced shell lists constructed in    0.0 sec

Total number of grid points                  ...    28417
Total number of batches                      ...      457
Average number of points per batch           ...       62
Average number of grid points per atom       ...     1137
Average number of shells per batch           ...    50.55 (44.34%)
Average number of basis functions per batch  ...    97.45 (40.27%)
Average number of large shells per batch     ...    29.86 (59.08%)
Average number of large basis fcns per batch ...    60.14 (61.71%)
Maximum spatial batch extension              ...  18.47, 15.17, 14.57 au
Average spatial batch extension              ...   0.19,  0.16,  0.17 au

Time for grid setup =    0.102 sec

------------------------------
INITIAL GUESS: MODEL POTENTIAL
------------------------------
Loading Hartree-Fock densities                     ... done
Calculating cut-offs                               ... done
Setting up the integral package                    ... done
Initializing the effective Hamiltonian             ... done
Starting the Coulomb interaction                   ... done (   0.0 sec)
Reading the grid                                   ... done
Mapping shells                                     ... done
Starting the XC term evaluation                    ... done (   0.0 sec)
Transforming the Hamiltonian                       ... done (   0.0 sec)
Diagonalizing the Hamiltonian                      ... done (   0.0 sec)
Back transforming the eigenvectors                 ... done (   0.0 sec)
Now organizing SCF variables                       ... done
                      ------------------
                      INITIAL GUESS DONE (   0.2 sec)
                      ------------------
--------------
SCF ITERATIONS
--------------
ITER       Energy         Delta-E        Max-DP      RMS-DP      [F,P]     Damp
               ***  Starting incremental Fock matrix formation  ***
  0   -662.6448538535   0.000000000000 0.03223278  0.00092338  0.2227978 0.7000
  1   -662.7928478325  -0.147993979047 0.02350636  0.00070508  0.1370577 0.7000
                               ***Turning on DIIS***
  2   -662.8817877867  -0.088939954175 0.05420842  0.00158966  0.0781795 0.0000
  3   -662.4507853588   0.431002427932 0.03697779  0.00045244  0.0453554 0.0000
  4   -663.1505050377  -0.699719678908 0.01970621  0.00023538  0.0128512 0.0000
  5   -663.1090401780   0.041464859724 0.00811369  0.00012674  0.0068081 0.0000
  6   -663.0786873828   0.030352795162 0.00822364  0.00010335  0.0046581 0.0000
  7   -663.0951092576  -0.016421874835 0.00687182  0.00008295  0.0030438 0.0000
  8   -663.0855039190   0.009605338580 0.00570466  0.00007916  0.0020096 0.0000
  9   -663.0873334165  -0.001829497428 0.00383246  0.00006281  0.0014798 0.0000
 10   -663.0878308073  -0.000497390839 0.00355946  0.00006203  0.0010072 0.0000
 11   -663.0852006831   0.002630124213 0.00387453  0.00007460  0.0007166 0.0000
 12   -663.0840542084   0.001146474674 0.00228296  0.00004005  0.0007552 0.0000
 13   -663.0845475532  -0.000493344799 0.00175511  0.00003688  0.0002816 0.0000
 14   -663.0833186943   0.001228858885 0.00106393  0.00001699  0.0001742 0.0000
 15   -663.0829459346   0.000372759704 0.00053302  0.00000596  0.0000548 0.0000
 16   -663.0827713674   0.000174567278 0.00032845  0.00000319  0.0000313 0.0000
 17   -663.0828246721  -0.000053304787 0.00029899  0.00000284  0.0000299 0.0000
 18   -663.0827841419   0.000040530232 0.00023011  0.00000220  0.0000204 0.0000
 19   -663.0827902110  -0.000006069109 0.00018068  0.00000169  0.0000210 0.0000
               *** Restarting incremental Fock matrix formation ***
                                   *** Resetting DIIS ***
 20   -663.0828004973  -0.000010286296 0.00021992  0.00000206  0.0000199 0.0000
 21   -663.0828002893   0.000000208006 0.00019387  0.00000180  0.0000223 0.0000
 22   -663.0828035983  -0.000003308971 0.00026209  0.00000244  0.0000226 0.0000
 23   -663.0828240095  -0.000020411172 0.00053561  0.00000497  0.0000231 0.0000
 24   -663.0828454999  -0.000021490408 0.00113670  0.00001056  0.0000212 0.0000
 25   -663.0828606647  -0.000015164802 0.00089262  0.00000827  0.0000180 0.0000
 26   -663.0828413053   0.000019359400 0.00034715  0.00000323  0.0000095 0.0000
 27   -663.0827894984   0.000051806851 0.00011575  0.00000114  0.0000062 0.0000
 28   -663.0827957941  -0.000006295720 0.00018433  0.00000173  0.0000044 0.0000
 29   -663.0828040498  -0.000008255713 0.00007395  0.00000070  0.0000027 0.0000
 30   -663.0828043080  -0.000000258101 0.00008004  0.00000076  0.0000018 0.0000
 31   -663.0828074976  -0.000003189678 0.00000818  0.00000011  0.0000011 0.0000
                            ***DIIS convergence achieved***

               *****************************************************
               *                     SUCCESS                       *
               *           SCF CONVERGED AFTER  32 CYCLES          *
               *****************************************************


----------------
TOTAL SCF ENERGY
----------------

Total Energy       :         -663.08280827 Eh          -18043.40052 eV

Components:
Nuclear Repulsion  :          826.49919716 Eh           22490.18653 eV
Electronic Energy  :        -1489.58200543 Eh          -40533.58706 eV
One Electron Energy:        -2547.05455326 Eh          -69308.87799 eV
Two Electron Energy:         1057.47254784 Eh           28775.29093 eV

Virial components:
Potential Energy   :        -1323.65441707 Eh          -36018.46783 eV
Kinetic Energy     :          660.57160880 Eh           17975.06731 eV
Virial Ratio       :            2.00380156


---------------
SCF CONVERGENCE
---------------

  Last Energy change         ...   -7.7461e-07  Tolerance :   1.0000e-08
  Last MAX-Density change    ...    9.2571e-06  Tolerance :   1.0000e-07
  Last RMS-Density change    ...    1.3373e-07  Tolerance :   5.0000e-09
  Last DIIS Error            ...    8.1112e-07  Tolerance :   5.0000e-07

             **** THE GBW FILE WAS UPDATED (id0.gbw) ****
             **** DENSITY FILE WAS UPDATED (id0.scfp) ****
             **** ENERGY FILE WAS UPDATED (id0.en.tmp) ****
----------------------
UHF SPIN CONTAMINATION
----------------------

Expectation value of <S**2>     :     0.800871
Ideal value S*(S+1) for S=0.5   :     0.750000
Deviation                       :     0.050871

             **** THE GBW FILE WAS UPDATED (id0.gbw) ****
             **** DENSITY FILE WAS UPDATED (id0.scfp) ****
----------------
ORBITAL ENERGIES
----------------
                 SPIN UP ORBITALS
  NO   OCC          E(Eh)            E(eV) 
   0   1.0000     -20.665572      -562.3388 
   1   1.0000     -20.637557      -561.5765 
   2   1.0000     -20.602330      -560.6179 
   3   1.0000     -20.566983      -559.6561 
   4   1.0000     -15.582723      -424.0274 
   5   1.0000     -11.374219      -309.5082 
   6   1.0000     -11.345844      -308.7361 
   7   1.0000     -11.306499      -307.6655 
   8   1.0000     -11.295860      -307.3760 
   9   1.0000     -11.291879      -307.2676 
  10   1.0000     -11.279044      -306.9184 
  11   1.0000     -11.274094      -306.7837 
  12   1.0000     -11.253557      -306.2248 
  13   1.0000      -1.533091       -41.7175 
  14   1.0000      -1.437021       -39.1033 
  15   1.0000      -1.374991       -37.4154 
  16   1.0000      -1.230165       -33.4745 
  17   1.0000      -1.207654       -32.8619 
  18   1.0000      -1.189082       -32.3566 
  19   1.0000      -1.084491       -29.5105 
  20   1.0000      -0.939862       -25.5749 
  21   1.0000      -0.909090       -24.7376 
  22   1.0000      -0.895423       -24.3657 
  23   1.0000      -0.853262       -23.2184 
  24   1.0000      -0.819662       -22.3041 
  25   1.0000      -0.770855       -20.9760 
  26   1.0000      -0.746762       -20.3204 
  27   1.0000      -0.725822       -19.7506 
  28   1.0000      -0.708309       -19.2741 
  29   1.0000      -0.695159       -18.9163 
  30   1.0000      -0.679697       -18.4955 
  31   1.0000      -0.674079       -18.3426 
  32   1.0000      -0.654073       -17.7982 
  33   1.0000      -0.632719       -17.2172 
  34   1.0000      -0.605517       -16.4769 
  35   1.0000      -0.580745       -15.8029 
  36   1.0000      -0.570179       -15.5154 
  37   1.0000      -0.566215       -15.4075 
  38   1.0000      -0.557021       -15.1573 
  39   1.0000      -0.553859       -15.0713 
  40   1.0000      -0.545696       -14.8491 
  41   1.0000      -0.529891       -14.4191 
  42   1.0000      -0.526663       -14.3312 
  43   1.0000      -0.520737       -14.1700 
  44   1.0000      -0.503134       -13.6910 
  45   1.0000      -0.490180       -13.3385 
  46   1.0000      -0.475235       -12.9318 
  47   1.0000      -0.455797       -12.4029 
  48   1.0000      -0.433447       -11.7947 
  49   1.0000      -0.399955       -10.8833 
  50   0.0000       0.108877         2.9627 
  51   0.0000       0.154693         4.2094 
  52   0.0000       0.171426         4.6647 
  53   0.0000       0.175658         4.7799 
  54   0.0000       0.193034         5.2527 
  55   0.0000       0.196062         5.3351 
  56   0.0000       0.199600         5.4314 
  57   0.0000       0.220833         6.0092 
  58   0.0000       0.234118         6.3707 
  59   0.0000       0.249553         6.7907 
  60   0.0000       0.254601         6.9280 
  61   0.0000       0.264527         7.1981 
  62   0.0000       0.270973         7.3736 
  63   0.0000       0.279448         7.6042 
  64   0.0000       0.292087         7.9481 
  65   0.0000       0.304050         8.2736 
  66   0.0000       0.311781         8.4840 
  67   0.0000       0.345147         9.3919 
  68   0.0000       0.362664         9.8686 
  69   0.0000       0.380767        10.3612 
  70   0.0000       0.398693        10.8490 
  71   0.0000       0.414077        11.2676 
  72   0.0000       0.424669        11.5558 
  73   0.0000       0.430505        11.7146 
  74   0.0000       0.449788        12.2394 
  75   0.0000       0.464233        12.6324 
  76   0.0000       0.475439        12.9373 
  77   0.0000       0.574031        15.6202 
  78   0.0000       0.588865        16.0238 
  79   0.0000       0.603726        16.4282 
  80   0.0000       0.633103        17.2276 
  81   0.0000       0.664478        18.0814 
  82   0.0000       0.667820        18.1723 
  83   0.0000       0.678292        18.4573 
  84   0.0000       0.710338        19.3293 
  85   0.0000       0.722144        19.6505 
  86   0.0000       0.728873        19.8336 
  87   0.0000       0.748819        20.3764 
  88   0.0000       0.758311        20.6347 
  89   0.0000       0.761482        20.7210 
  90   0.0000       0.784034        21.3347 
  91   0.0000       0.799589        21.7579 
  92   0.0000       0.803773        21.8718 
  93   0.0000       0.808331        21.9958 
  94   0.0000       0.820852        22.3365 
  95   0.0000       0.839643        22.8478 
  96   0.0000       0.846774        23.0419 
  97   0.0000       0.852206        23.1897 
  98   0.0000       0.864598        23.5269 
  99   0.0000       0.870271        23.6813 
 100   0.0000       0.877351        23.8739 
 101   0.0000       0.886601        24.1256 
 102   0.0000       0.890572        24.2337 
 103   0.0000       0.893854        24.3230 
 104   0.0000       0.902868        24.5683 
 105   0.0000       0.906910        24.6783 
 106   0.0000       0.916853        24.9488 
 107   0.0000       0.919583        25.0231 
 108   0.0000       0.936423        25.4814 
 109   0.0000       0.947453        25.7815 
 110   0.0000       0.960005        26.1231 
 111   0.0000       0.986125        26.8338 
 112   0.0000       1.003048        27.2943 
 113   0.0000       1.023919        27.8622 
 114   0.0000       1.043554        28.3965 
 115   0.0000       1.071467        29.1561 
 116   0.0000       1.082318        29.4514 
 117   0.0000       1.136227        30.9183 
 118   0.0000       1.147612        31.2281 
 119   0.0000       1.169616        31.8269 
 120   0.0000       1.180838        32.1322 
 121   0.0000       1.185276        32.2530 
 122   0.0000       1.215603        33.0782 
 123   0.0000       1.233712        33.5710 
 124   0.0000       1.246623        33.9223 
 125   0.0000       1.275300        34.7027 
 126   0.0000       1.284677        34.9579 
 127   0.0000       1.323622        36.0176 
 128   0.0000       1.328531        36.1512 
 129   0.0000       1.351377        36.7728 
 130   0.0000       1.356275        36.9061 
 131   0.0000       1.396753        38.0076 
 132   0.0000       1.405963        38.2582 
 133   0.0000       1.435682        39.0669 
 134   0.0000       1.445598        39.3367 
 135   0.0000       1.484026        40.3824 
 136   0.0000       1.511613        41.1331 
 137   0.0000       1.543950        42.0130 
 138   0.0000       1.566003        42.6131 
 139   0.0000       1.574577        42.8464 
 140   0.0000       1.612709        43.8840 
 141   0.0000       1.632304        44.4173 
 142   0.0000       1.656607        45.0786 
 143   0.0000       1.666691        45.3530 
 144   0.0000       1.701017        46.2870 
 145   0.0000       1.716443        46.7068 
 146   0.0000       1.727359        47.0038 
 147   0.0000       1.757619        47.8272 
 148   0.0000       1.781453        48.4758 
 149   0.0000       1.783983        48.5447 
 150   0.0000       1.813819        49.3565 
 151   0.0000       1.821450        49.5642 
 152   0.0000       1.834440        49.9176 
 153   0.0000       1.846867        50.2558 
 154   0.0000       1.881546        51.1995 
 155   0.0000       1.893199        51.5166 
 156   0.0000       1.902399        51.7669 
 157   0.0000       1.924152        52.3588 
 158   0.0000       1.946943        52.9790 
 159   0.0000       1.961546        53.3764 
 160   0.0000       1.970718        53.6260 
 161   0.0000       1.991639        54.1953 
 162   0.0000       2.013194        54.7818 
 163   0.0000       2.018398        54.9234 
 164   0.0000       2.030576        55.2548 
 165   0.0000       2.052905        55.8624 
 166   0.0000       2.071004        56.3549 
 167   0.0000       2.077619        56.5349 
 168   0.0000       2.081122        56.6302 
 169   0.0000       2.106616        57.3239 
 170   0.0000       2.116889        57.6035 
 171   0.0000       2.127024        57.8793 
 172   0.0000       2.139900        58.2296 
 173   0.0000       2.141562        58.2749 
 174   0.0000       2.165588        58.9286 
 175   0.0000       2.183202        59.4079 
 176   0.0000       2.198800        59.8324 
 177   0.0000       2.215138        60.2770 
 178   0.0000       2.228181        60.6319 
 179   0.0000       2.261321        61.5337 
 180   0.0000       2.288180        62.2646 
 181   0.0000       2.306575        62.7651 
 182   0.0000       2.337281        63.6006 
 183   0.0000       2.354907        64.0803 
 184   0.0000       2.403535        65.4035 
 185   0.0000       2.407242        65.5044 
 186   0.0000       2.423658        65.9511 
 187   0.0000       2.473627        67.3108 
 188   0.0000       2.510556        68.3157 
 189   0.0000       2.518300        68.5264 
 190   0.0000       2.539221        69.0957 
 191   0.0000       2.553999        69.4979 
 192   0.0000       2.598433        70.7070 
 193   0.0000       2.608485        70.9805 
 194   0.0000       2.611171        71.0536 
 195   0.0000       2.623540        71.3902 
 196   0.0000       2.630738        71.5860 
 197   0.0000       2.636241        71.7358 
 198   0.0000       2.648564        72.0711 
 199   0.0000       2.714712        73.8711 
 200   0.0000       2.747265        74.7569 
 201   0.0000       2.760178        75.1083 
 202   0.0000       2.808639        76.4270 
 203   0.0000       2.818262        76.6888 
 204   0.0000       2.835102        77.1471 
 205   0.0000       2.864140        77.9372 
 206   0.0000       2.891979        78.6947 
 207   0.0000       2.912134        79.2432 
 208   0.0000       2.946060        80.1664 
 209   0.0000       2.995408        81.5092 
 210   0.0000       3.020917        82.2033 
 211   0.0000       3.042296        82.7851 
 212   0.0000       3.057624        83.2022 
 213   0.0000       3.092044        84.1388 
 214   0.0000       3.105936        84.5168 
 215   0.0000       3.115796        84.7851 
 216   0.0000       3.133383        85.2637 
 217   0.0000       3.148276        85.6689 
 218   0.0000       3.189554        86.7922 
 219   0.0000       3.209872        87.3451 
 220   0.0000       3.252921        88.5165 
 221   0.0000       3.287013        89.4442 
 222   0.0000       3.288451        89.4833 
 223   0.0000       3.316348        90.2424 
 224   0.0000       3.334486        90.7360 
 225   0.0000       3.380382        91.9849 
 226   0.0000       3.401198        92.5513 
 227   0.0000       3.418591        93.0246 
 228   0.0000       3.474463        94.5449 
 229   0.0000       3.483914        94.8021 
 230   0.0000       3.507138        95.4341 
 231   0.0000       3.538882        96.2979 
 232   0.0000       3.549955        96.5992 
 233   0.0000       3.585421        97.5643 
 234   0.0000       3.664472        99.7153 
 235   0.0000       3.734630       101.6245 
 236   0.0000       3.768666       102.5506 
 237   0.0000       3.912790       106.4724 
 238   0.0000       3.961664       107.8024 
 239   0.0000       4.019089       109.3650 
 240   0.0000       4.166500       113.3762 
 241   0.0000       4.300894       117.0333 

                 SPIN DOWN ORBITALS
  NO   OCC          E(Eh)            E(eV) 
   0   1.0000     -20.635861      -561.5303 
   1   1.0000     -20.633708      -561.4717 
   2   1.0000     -20.598480      -560.5131 
   3   1.0000     -20.566975      -559.6559 
   4   1.0000     -15.582625      -424.0248 
   5   1.0000     -11.359832      -309.1167 
   6   1.0000     -11.346014      -308.7407 
   7   1.0000     -11.306665      -307.6700 
   8   1.0000     -11.292764      -307.2917 
   9   1.0000     -11.291934      -307.2691 
  10   1.0000     -11.279052      -306.9186 
  11   1.0000     -11.274111      -306.7842 
  12   1.0000     -11.253141      -306.2135 
  13   1.0000      -1.496070       -40.7101 
  14   1.0000      -1.426293       -38.8114 
  15   1.0000      -1.369203       -37.2579 
  16   1.0000      -1.229711       -33.4621 
  17   1.0000      -1.188676       -32.3455 
  18   1.0000      -1.151705       -31.3395 
  19   1.0000      -1.076166       -29.2840 
  20   1.0000      -0.931357       -25.3435 
  21   1.0000      -0.899492       -24.4764 
  22   1.0000      -0.886971       -24.1357 
  23   1.0000      -0.852944       -23.2098 
  24   1.0000      -0.780100       -21.2276 
  25   1.0000      -0.749460       -20.3938 
  26   1.0000      -0.718523       -19.5520 
  27   1.0000      -0.708727       -19.2854 
  28   1.0000      -0.699507       -19.0345 
  29   1.0000      -0.689271       -18.7560 
  30   1.0000      -0.662789       -18.0354 
  31   1.0000      -0.654096       -17.7989 
  32   1.0000      -0.630017       -17.1436 
  33   1.0000      -0.606934       -16.5155 
  34   1.0000      -0.583237       -15.8707 
  35   1.0000      -0.573033       -15.5930 
  36   1.0000      -0.568167       -15.4606 
  37   1.0000      -0.559314       -15.2197 
  38   1.0000      -0.553535       -15.0625 
  39   1.0000      -0.548397       -14.9226 
  40   1.0000      -0.530652       -14.4398 
  41   1.0000      -0.528645       -14.3852 
  42   1.0000      -0.521258       -14.1841 
  43   1.0000      -0.503354       -13.6969 
  44   1.0000      -0.497897       -13.5485 
  45   1.0000      -0.469230       -12.7684 
  46   1.0000      -0.456019       -12.4089 
  47   1.0000      -0.430392       -11.7116 
  48   1.0000      -0.405455       -11.0330 
  49   0.0000       0.037887         1.0310 
  50   0.0000       0.117989         3.2106 
  51   0.0000       0.156429         4.2566 
  52   0.0000       0.171805         4.6750 
  53   0.0000       0.176237         4.7957 
  54   0.0000       0.195123         5.3096 
  55   0.0000       0.197651         5.3784 
  56   0.0000       0.200467         5.4550 
  57   0.0000       0.221342         6.0230 
  58   0.0000       0.235169         6.3993 
  59   0.0000       0.251026         6.8308 
  60   0.0000       0.256410         6.9773 
  61   0.0000       0.268916         7.3176 
  62   0.0000       0.272674         7.4198 
  63   0.0000       0.283305         7.7091 
  64   0.0000       0.295260         8.0344 
  65   0.0000       0.307233         8.3602 
  66   0.0000       0.318057         8.6548 
  67   0.0000       0.352558         9.5936 
  68   0.0000       0.368531        10.0282 
  69   0.0000       0.387760        10.5515 
  70   0.0000       0.399770        10.8783 
  71   0.0000       0.416569        11.3354 
  72   0.0000       0.429540        11.6884 
  73   0.0000       0.441110        12.0032 
  74   0.0000       0.451655        12.2901 
  75   0.0000       0.472527        12.8581 
  76   0.0000       0.496283        13.5045 
  77   0.0000       0.577153        15.7051 
  78   0.0000       0.591105        16.0848 
  79   0.0000       0.604799        16.4574 
  80   0.0000       0.644737        17.5442 
  81   0.0000       0.667079        18.1521 
  82   0.0000       0.671438        18.2708 
  83   0.0000       0.683221        18.5914 
  84   0.0000       0.714484        19.4421 
  85   0.0000       0.725242        19.7348 
  86   0.0000       0.730402        19.8753 
  87   0.0000       0.755160        20.5489 
  88   0.0000       0.760177        20.6855 
  89   0.0000       0.770973        20.9792 
  90   0.0000       0.787459        21.4279 
  91   0.0000       0.804333        21.8870 
  92   0.0000       0.808997        22.0139 
  93   0.0000       0.810753        22.0617 
  94   0.0000       0.826859        22.5000 
  95   0.0000       0.840974        22.8841 
  96   0.0000       0.848931        23.1006 
  97   0.0000       0.853649        23.2290 
  98   0.0000       0.866206        23.5707 
  99   0.0000       0.872227        23.7345 
 100   0.0000       0.879137        23.9225 
 101   0.0000       0.887416        24.1478 
 102   0.0000       0.891121        24.2486 
 103   0.0000       0.894717        24.3465 
 104   0.0000       0.904118        24.6023 
 105   0.0000       0.907408        24.6918 
 106   0.0000       0.917968        24.9792 
 107   0.0000       0.920999        25.0616 
 108   0.0000       0.941485        25.6191 
 109   0.0000       0.953252        25.9393 
 110   0.0000       0.968722        26.3603 
 111   0.0000       0.987428        26.8693 
 112   0.0000       1.006356        27.3843 
 113   0.0000       1.025481        27.9048 
 114   0.0000       1.046129        28.4666 
 115   0.0000       1.074246        29.2317 
 116   0.0000       1.090746        29.6807 
 117   0.0000       1.149244        31.2725 
 118   0.0000       1.156825        31.4788 
 119   0.0000       1.173848        31.9420 
 120   0.0000       1.182399        32.1747 
 121   0.0000       1.189101        32.3571 
 122   0.0000       1.219222        33.1767 
 123   0.0000       1.235360        33.6158 
 124   0.0000       1.251583        34.0573 
 125   0.0000       1.281058        34.8594 
 126   0.0000       1.300208        35.3805 
 127   0.0000       1.329250        36.1707 
 128   0.0000       1.349176        36.7129 
 129   0.0000       1.351984        36.7893 
 130   0.0000       1.360946        37.0332 
 131   0.0000       1.398628        38.0586 
 132   0.0000       1.408026        38.3143 
 133   0.0000       1.439213        39.1630 
 134   0.0000       1.460617        39.7454 
 135   0.0000       1.492705        40.6186 
 136   0.0000       1.513902        41.1954 
 137   0.0000       1.545652        42.0593 
 138   0.0000       1.568046        42.6687 
 139   0.0000       1.583736        43.0956 
 140   0.0000       1.617039        44.0019 
 141   0.0000       1.634793        44.4850 
 142   0.0000       1.664998        45.3069 
 143   0.0000       1.674071        45.5538 
 144   0.0000       1.708960        46.5032 
 145   0.0000       1.721193        46.8360 
 146   0.0000       1.734764        47.2053 
 147   0.0000       1.757984        47.8372 
 148   0.0000       1.782836        48.5134 
 149   0.0000       1.790615        48.7251 
 150   0.0000       1.815155        49.3929 
 151   0.0000       1.823098        49.6090 
 152   0.0000       1.838923        50.0396 
 153   0.0000       1.851025        50.3690 
 154   0.0000       1.883764        51.2598 
 155   0.0000       1.894919        51.5634 
 156   0.0000       1.905568        51.8531 
 157   0.0000       1.927619        52.4532 
 158   0.0000       1.948591        53.0239 
 159   0.0000       1.968655        53.5698 
 160   0.0000       1.979685        53.8700 
 161   0.0000       1.992604        54.2215 
 162   0.0000       2.017258        54.8924 
 163   0.0000       2.019994        54.9668 
 164   0.0000       2.038759        55.4775 
 165   0.0000       2.053702        55.8841 
 166   0.0000       2.073641        56.4266 
 167   0.0000       2.081276        56.6344 
 168   0.0000       2.085457        56.7482 
 169   0.0000       2.113077        57.4998 
 170   0.0000       2.117356        57.6162 
 171   0.0000       2.127728        57.8984 
 172   0.0000       2.141530        58.2740 
 173   0.0000       2.143788        58.3354 
 174   0.0000       2.167138        58.9708 
 175   0.0000       2.184939        59.4552 
 176   0.0000       2.199033        59.8387 
 177   0.0000       2.216163        60.3049 
 178   0.0000       2.230195        60.6867 
 179   0.0000       2.268698        61.7344 
 180   0.0000       2.290449        62.3263 
 181   0.0000       2.308673        62.8222 
 182   0.0000       2.338869        63.6439 
 183   0.0000       2.356180        64.1149 
 184   0.0000       2.405393        65.4541 
 185   0.0000       2.408009        65.5252 
 186   0.0000       2.424335        65.9695 
 187   0.0000       2.475109        67.3511 
 188   0.0000       2.512740        68.3751 
 189   0.0000       2.519299        68.5536 
 190   0.0000       2.539919        69.1147 
 191   0.0000       2.554430        69.5096 
 192   0.0000       2.599924        70.7475 
 193   0.0000       2.609846        71.0175 
 194   0.0000       2.612371        71.0862 
 195   0.0000       2.626974        71.4836 
 196   0.0000       2.632358        71.6301 
 197   0.0000       2.639921        71.8359 
 198   0.0000       2.669491        72.6405 
 199   0.0000       2.734929        74.4212 
 200   0.0000       2.752579        74.9015 
 201   0.0000       2.775676        75.5300 
 202   0.0000       2.813202        76.5511 
 203   0.0000       2.824300        76.8531 
 204   0.0000       2.839832        77.2758 
 205   0.0000       2.873358        78.1880 
 206   0.0000       2.901927        78.9654 
 207   0.0000       2.913927        79.2920 
 208   0.0000       2.948771        80.2401 
 209   0.0000       3.017566        82.1121 
 210   0.0000       3.027353        82.3785 
 211   0.0000       3.053719        83.0959 
 212   0.0000       3.068750        83.5049 
 213   0.0000       3.102519        84.4238 
 214   0.0000       3.108268        84.5803 
 215   0.0000       3.117859        84.8413 
 216   0.0000       3.134772        85.3015 
 217   0.0000       3.155522        85.8661 
 218   0.0000       3.200783        87.0977 
 219   0.0000       3.216113        87.5149 
 220   0.0000       3.257158        88.6318 
 221   0.0000       3.287077        89.4459 
 222   0.0000       3.289065        89.5000 
 223   0.0000       3.318011        90.2877 
 224   0.0000       3.335696        90.7689 
 225   0.0000       3.380672        91.9928 
 226   0.0000       3.405213        92.6606 
 227   0.0000       3.419687        93.0544 
 228   0.0000       3.483697        94.7962 
 229   0.0000       3.494359        95.0863 
 230   0.0000       3.507996        95.4574 
 231   0.0000       3.543185        96.4150 
 232   0.0000       3.566219        97.0418 
 233   0.0000       3.588383        97.6449 
 234   0.0000       3.690206       100.4156 
 235   0.0000       3.738284       101.7239 
 236   0.0000       3.769168       102.5643 
 237   0.0000       3.916005       106.5599 
 238   0.0000       3.990890       108.5976 
 239   0.0000       4.025031       109.5267 
 240   0.0000       4.166659       113.3806 
 241   0.0000       4.323763       117.6556 

                    ********************************
                    * MULLIKEN POPULATION ANALYSIS *
                    ********************************

--------------------------------------------
MULLIKEN ATOMIC CHARGES AND SPIN POPULATIONS
--------------------------------------------
   0 O :   -0.419981    0.001050
   1 C :    0.499862   -0.003202
   2 O :   -0.334233   -0.000117
   3 O :   -0.197323    0.626242
   4 H :    0.205497   -0.001304
   5 H :    0.055936   -0.002791
   6 H :    0.030807    0.001399
   7 C :   -0.544895   -0.005730
   8 C :   -0.150949    0.044168
   9 C :    0.034528   -0.000047
  10 C :    0.052065    0.000277
  11 C :    0.045710    0.013465
  12 C :    0.216455    0.457102
  13 C :    0.102314   -0.000275
  14 H :    0.071885   -0.002242
  15 H :    0.086542   -0.000147
  16 H :    0.072991   -0.000133
  17 H :    0.079262   -0.000209
  18 H :    0.099271   -0.000073
  19 H :    0.064918   -0.000917
  20 H :    0.065135   -0.000983
  21 H :    0.044113    0.003869
  22 O :   -0.286271    0.035943
  23 H :    0.215826   -0.168334
  24 N :   -0.109464    0.002986
Sum of atomic charges         :   -0.0000000
Sum of atomic spin populations:    1.0000000

-----------------------------------------------------
MULLIKEN REDUCED ORBITAL CHARGES AND SPIN POPULATIONS
-----------------------------------------------------
CHARGE
  0 O s       :     3.740781  s :     3.740781
      pz      :     1.565871  p :     4.663535
      px      :     1.827123
      py      :     1.270541
      dz2     :     0.004085  d :     0.015665
      dxz     :     0.002169
      dyz     :     0.006190
      dx2y2   :     0.001114
      dxy     :     0.002107
  1 C s       :     2.963618  s :     2.963618
      pz      :     0.666165  p :     2.428789
      px      :     0.886079
      py      :     0.876545
      dz2     :     0.024222  d :     0.107731
      dxz     :     0.027983
      dyz     :     0.026205
      dx2y2   :     0.016896
      dxy     :     0.012425
  2 O s       :     3.842942  s :     3.842942
      pz      :     1.543331  p :     4.463631
      px      :     1.660606
      py      :     1.259693
      dz2     :     0.004086  d :     0.027660
      dxz     :     0.005917
      dyz     :     0.004987
      dx2y2   :     0.005744
      dxy     :     0.006926
  3 O s       :     3.873448  s :     3.873448
      pz      :     1.538812  p :     4.302591
      px      :     1.571358
      py      :     1.192421
      dz2     :     0.002455  d :     0.021284
      dxz     :     0.002673
      dyz     :     0.005267
      dx2y2   :     0.006352
      dxy     :     0.004536
  4 H s       :     0.722222  s :     0.722222
      pz      :     0.015259  p :     0.072281
      px      :     0.020792
      py      :     0.036230
  5 H s       :     0.921008  s :     0.921008
      pz      :     0.002376  p :     0.023056
      px      :     0.004924
      py      :     0.015756
  6 H s       :     0.946479  s :     0.946479
      pz      :     0.003696  p :     0.022714
      px      :     0.016328
      py      :     0.002690
  7 C s       :     3.273874  s :     3.273874
      pz      :     1.133262  p :     3.207632
      px      :     0.946051
      py      :     1.128319
      dz2     :     0.008334  d :     0.063389
      dxz     :     0.013888
      dyz     :     0.013199
      dx2y2   :     0.013034
      dxy     :     0.014934
  8 C s       :     3.144431  s :     3.144431
      pz      :     0.991498  p :     2.953566
      px      :     0.964347
      py      :     0.997721
      dz2     :     0.006849  d :     0.052952
      dxz     :     0.011938
      dyz     :     0.013480
      dx2y2   :     0.006428
      dxy     :     0.014257
  9 C s       :     3.107498  s :     3.107498
      pz      :     0.906179  p :     2.812504
      px      :     0.902022
      py      :     1.004303
      dz2     :     0.010014  d :     0.045470
      dxz     :     0.010707
      dyz     :     0.010966
      dx2y2   :     0.008021
      dxy     :     0.005762
 10 C s       :     3.116660  s :     3.116660
      pz      :     0.980714  p :     2.785310
      px      :     0.836860
      py      :     0.967737
      dz2     :     0.009295  d :     0.045964
      dxz     :     0.007835
      dyz     :     0.010036
      dx2y2   :     0.011728
      dxy     :     0.007070
 11 C s       :     3.024057  s :     3.024057
      pz      :     0.967348  p :     2.893793
      px      :     0.935914
      py      :     0.990531
      dz2     :     0.004340  d :     0.036440
      dxz     :     0.008652
      dyz     :     0.009432
      dx2y2   :     0.002532
      dxy     :     0.011484
 12 C s       :     3.239728  s :     3.239728
      pz      :     0.847529  p :     2.440626
      px      :     0.899746
      py      :     0.693351
      dz2     :     0.011913  d :     0.103191
      dxz     :     0.037233
      dyz     :     0.006935
      dx2y2   :     0.020617
      dxy     :     0.026492
 13 C s       :     3.039864  s :     3.039864
      pz      :     0.919843  p :     2.797912
      px      :     0.916429
      py      :     0.961640
      dz2     :     0.017649  d :     0.059910
      dxz     :     0.008850
      dyz     :     0.012626
      dx2y2   :     0.010271
      dxy     :     0.010514
 14 H s       :     0.904493  s :     0.904493
      pz      :     0.008163  p :     0.023623
      px      :     0.004793
      py      :     0.010666
 15 H s       :     0.887836  s :     0.887836
      pz      :     0.002491  p :     0.025623
      px      :     0.006281
      py      :     0.016852
 16 H s       :     0.901565  s :     0.901565
      pz      :     0.015974  p :     0.025444
      px      :     0.003973
      py      :     0.005497
 17 H s       :     0.895064  s :     0.895064
      pz      :     0.003798  p :     0.025674
      px      :     0.003432
      py      :     0.018443
 18 H s       :     0.874772  s :     0.874772
      pz      :     0.013362  p :     0.025957
      px      :     0.008175
      py      :     0.004420
 19 H s       :     0.909570  s :     0.909570
      pz      :     0.004618  p :     0.025512
      px      :     0.011728
      py      :     0.009166
 20 H s       :     0.909309  s :     0.909309
      pz      :     0.008096  p :     0.025556
      px      :     0.006067
      py      :     0.011393
 21 H s       :     0.930691  s :     0.930691
      pz      :     0.013406  p :     0.025197
      px      :     0.005320
      py      :     0.006470
 22 O s       :     3.779745  s :     3.779745
      pz      :     1.657519  p :     4.483695
      px      :     1.374972
      py      :     1.451204
      dz2     :     0.002653  d :     0.022832
      dxz     :     0.005779
      dyz     :     0.000411
      dx2y2   :     0.006871
      dxy     :     0.007118
 23 H s       :     0.733108  s :     0.733108
      pz      :     0.022584  p :     0.051066
      px      :     0.022649
      py      :     0.005833
 24 N s       :     3.620189  s :     3.620189
      pz      :     1.191196  p :     3.450904
      px      :     1.058191
      py      :     1.201517
      dz2     :     0.009394  d :     0.038371
      dxz     :     0.006103
      dyz     :     0.009195
      dx2y2   :     0.006850
      dxy     :     0.006829

SPIN
  0 O s       :     0.000109  s :     0.000109
      pz      :     0.000176  p :     0.000954
      px      :    -0.000095
      py      :     0.000873
      dz2     :    -0.000004  d :    -0.000013
      dxz     :    -0.000002
      dyz     :    -0.000004
      dx2y2   :    -0.000000
      dxy     :    -0.000002
  1 C s       :    -0.000360  s :    -0.000360
      pz      :    -0.002543  p :    -0.003066
      px      :    -0.000518
      py      :    -0.000005
      dz2     :     0.000357  d :     0.000224
      dxz     :    -0.000101
      dyz     :    -0.000125
      dx2y2   :     0.000044
      dxy     :     0.000049
  2 O s       :     0.003055  s :     0.003055
      pz      :     0.025869  p :    -0.003686
      px      :     0.022659
      py      :    -0.052214
      dz2     :     0.000240  d :     0.000515
      dxz     :    -0.000074
      dyz     :    -0.000008
      dx2y2   :     0.000197
      dxy     :     0.000161
  3 O s       :     0.016123  s :     0.016123
      pz      :     0.241586  p :     0.611014
      px      :     0.231291
      py      :     0.138137
      dz2     :    -0.000019  d :    -0.000896
      dxz     :    -0.000508
      dyz     :    -0.000146
      dx2y2   :    -0.000096
      dxy     :    -0.000126
  4 H s       :    -0.001320  s :    -0.001320
      pz      :     0.000020  p :     0.000016
      px      :    -0.000006
      py      :     0.000002
  5 H s       :    -0.002785  s :    -0.002785
      pz      :     0.000023  p :    -0.000006
      px      :    -0.000046
      py      :     0.000017
  6 H s       :     0.001440  s :     0.001440
      pz      :     0.000011  p :    -0.000041
      px      :    -0.000054
      py      :     0.000002
  7 C s       :    -0.001441  s :    -0.001441
      pz      :    -0.003549  p :    -0.004376
      px      :    -0.001516
      py      :     0.000689
      dz2     :     0.000029  d :     0.000088
      dxz     :     0.000026
      dyz     :    -0.000014
      dx2y2   :    -0.000002
      dxy     :     0.000049
  8 C s       :    -0.004913  s :    -0.004913
      pz      :     0.027534  p :     0.048023
      px      :     0.009247
      py      :     0.011242
      dz2     :    -0.000246  d :     0.001059
      dxz     :     0.000946
      dyz     :    -0.000119
      dx2y2   :    -0.000010
      dxy     :     0.000487
  9 C s       :     0.000137  s :     0.000137
      pz      :    -0.000108  p :    -0.000172
      px      :    -0.000181
      py      :     0.000117
      dz2     :    -0.000010  d :    -0.000012
      dxz     :     0.000000
      dyz     :     0.000000
      dx2y2   :    -0.000003
      dxy     :     0.000001
 10 C s       :     0.000078  s :     0.000078
      pz      :    -0.000095  p :     0.000222
      px      :     0.000269
      py      :     0.000048
      dz2     :    -0.000005  d :    -0.000023
      dxz     :     0.000009
      dyz     :    -0.000006
      dx2y2   :    -0.000009
      dxy     :    -0.000012
 11 C s       :     0.000610  s :     0.000610
      pz      :     0.004773  p :     0.012628
      px      :     0.004307
      py      :     0.003548
      dz2     :     0.000137  d :     0.000227
      dxz     :    -0.000061
      dyz     :     0.000024
      dx2y2   :     0.000117
      dxy     :     0.000010
 12 C s       :     0.131848  s :     0.131848
      pz      :     0.132326  p :     0.323300
      px      :     0.119404
      py      :     0.071570
      dz2     :     0.000313  d :     0.001954
      dxz     :     0.001425
      dyz     :     0.001035
      dx2y2   :    -0.000741
      dxy     :    -0.000078
 13 C s       :     0.001151  s :     0.001151
      pz      :    -0.002035  p :    -0.001475
      px      :    -0.000351
      py      :     0.000911
      dz2     :     0.000034  d :     0.000050
      dxz     :    -0.000006
      dyz     :     0.000026
      dx2y2   :    -0.000001
      dxy     :    -0.000003
 14 H s       :    -0.002399  s :    -0.002399
      pz      :     0.000139  p :     0.000157
      px      :    -0.000023
      py      :     0.000041
 15 H s       :    -0.000151  s :    -0.000151
      pz      :     0.000001  p :     0.000004
      px      :     0.000003
      py      :    -0.000000
 16 H s       :    -0.000133  s :    -0.000133
      pz      :     0.000001  p :     0.000000
      px      :    -0.000002
      py      :     0.000001
 17 H s       :    -0.000212  s :    -0.000212
      pz      :     0.000000  p :     0.000002
      px      :     0.000006
      py      :    -0.000004
 18 H s       :    -0.000072  s :    -0.000072
      pz      :    -0.000002  p :    -0.000001
      px      :    -0.000000
      py      :     0.000001
 19 H s       :    -0.000976  s :    -0.000976
      pz      :     0.000046  p :     0.000058
      px      :     0.000018
      py      :    -0.000006
 20 H s       :    -0.001009  s :    -0.001009
      pz      :    -0.000012  p :     0.000025
      px      :     0.000013
      py      :     0.000024
 21 H s       :     0.003885  s :     0.003885
      pz      :    -0.000088  p :    -0.000016
      px      :     0.000114
      py      :    -0.000042
 22 O s       :     0.002367  s :     0.002367
      pz      :     0.050158  p :     0.033575
      px      :     0.011955
      py      :    -0.028537
      dz2     :    -0.000029  d :     0.000001
      dxz     :    -0.000075
      dyz     :    -0.000046
      dx2y2   :    -0.000086
      dxy     :     0.000237
 23 H s       :    -0.197741  s :    -0.197741
      pz      :     0.014129  p :     0.029407
      px      :     0.013483
      py      :     0.001794
 24 N s       :     0.000339  s :     0.000339
      pz      :     0.001241  p :     0.002659
      px      :     0.000100
      py      :     0.001318
      dz2     :    -0.000009  d :    -0.000012
      dxz     :    -0.000001
      dyz     :    -0.000001
      dx2y2   :    -0.000000
      dxy     :    -0.000000


                     *******************************
                     * LOEWDIN POPULATION ANALYSIS *
                     *******************************

-------------------------------------------
LOEWDIN ATOMIC CHARGES AND SPIN POPULATIONS
-------------------------------------------
   0 O :   -0.153604    0.000390
   1 C :    0.201923   -0.003522
   2 O :   -0.123893    0.011180
   3 O :   -0.085999    0.556114
   4 H :    0.086533   -0.000852
   5 H :    0.022893   -0.001955
   6 H :   -0.005558    0.001247
   7 C :   -0.103116   -0.002601
   8 C :   -0.043473    0.059571
   9 C :    0.009016   -0.000253
  10 C :    0.019639   -0.000437
  11 C :   -0.016219    0.010521
  12 C :    0.183027    0.332549
  13 C :    0.013853   -0.001097
  14 H :    0.043939   -0.000056
  15 H :    0.037020   -0.000092
  16 H :    0.029582   -0.000047
  17 H :    0.031163   -0.000336
  18 H :    0.041009   -0.000031
  19 H :    0.031356   -0.000223
  20 H :    0.032403   -0.000243
  21 H :    0.024704    0.003357
  22 O :   -0.148440    0.047802
  23 H :   -0.010638   -0.013382
  24 N :   -0.117121    0.002395

----------------------------------------------------
LOEWDIN REDUCED ORBITAL CHARGES AND SPIN POPULATIONS
----------------------------------------------------
CHARGE
  0 O s       :     3.430554  s :     3.430554
      pz      :     1.584040  p :     4.695964
      px      :     1.794093
      py      :     1.317832
      dz2     :     0.006089  d :     0.027086
      dxz     :     0.002596
      dyz     :     0.010927
      dx2y2   :     0.002997
      dxy     :     0.004477
  1 C s       :     2.838570  s :     2.838570
      pz      :     0.821033  p :     2.736734
      px      :     0.972042
      py      :     0.943659
      dz2     :     0.050913  d :     0.222773
      dxz     :     0.059968
      dyz     :     0.051690
      dx2y2   :     0.035653
      dxy     :     0.024549
  2 O s       :     3.547589  s :     3.547589
      pz      :     1.543025  p :     4.529542
      px      :     1.673915
      py      :     1.312602
      dz2     :     0.006875  d :     0.046763
      dxz     :     0.008631
      dyz     :     0.010201
      dx2y2   :     0.009827
      dxy     :     0.011228
  3 O s       :     3.664600  s :     3.664600
      pz      :     1.530099  p :     4.383947
      px      :     1.572536
      py      :     1.281312
      dz2     :     0.004316  d :     0.037452
      dxz     :     0.006650
      dyz     :     0.008412
      dx2y2   :     0.010271
      dxy     :     0.007802
  4 H s       :     0.728916  s :     0.728916
      pz      :     0.044949  p :     0.184551
      px      :     0.058309
      py      :     0.081293
  5 H s       :     0.915484  s :     0.915484
      pz      :     0.009051  p :     0.061622
      px      :     0.013584
      py      :     0.038986
  6 H s       :     0.942971  s :     0.942971
      pz      :     0.011654  p :     0.062587
      px      :     0.041135
      py      :     0.009797
  7 C s       :     2.813303  s :     2.813303
      pz      :     1.088232  p :     3.153742
      px      :     0.996060
      py      :     1.069450
      dz2     :     0.017701  d :     0.136071
      dxz     :     0.029061
      dyz     :     0.028895
      dx2y2   :     0.028482
      dxy     :     0.031933
  8 C s       :     2.849323  s :     2.849323
      pz      :     1.026121  p :     3.078429
      px      :     1.026451
      py      :     1.025857
      dz2     :     0.014767  d :     0.115721
      dxz     :     0.025954
      dyz     :     0.030207
      dx2y2   :     0.013424
      dxy     :     0.031368
  9 C s       :     2.823152  s :     2.823152
      pz      :     0.987284  p :     3.065827
      px      :     1.024674
      py      :     1.053868
      dz2     :     0.025263  d :     0.102005
      dxz     :     0.022108
      dyz     :     0.023823
      dx2y2   :     0.017168
      dxy     :     0.013643
 10 C s       :     2.823241  s :     2.823241
      pz      :     1.046975  p :     3.053865
      px      :     0.977096
      py      :     1.029793
      dz2     :     0.020065  d :     0.103255
      dxz     :     0.018932
      dyz     :     0.020842
      dx2y2   :     0.027067
      dxy     :     0.016350
 11 C s       :     2.831048  s :     2.831048
      pz      :     1.036309  p :     3.103203
      px      :     1.021269
      py      :     1.045625
      dz2     :     0.009701  d :     0.081968
      dxz     :     0.019877
      dyz     :     0.021049
      dx2y2   :     0.005823
      dxy     :     0.025518
 12 C s       :     2.953989  s :     2.953989
      pz      :     0.901622  p :     2.655783
      px      :     1.012973
      py      :     0.741187
      dz2     :     0.025156  d :     0.207202
      dxz     :     0.074135
      dyz     :     0.014987
      dx2y2   :     0.045425
      dxy     :     0.047498
 13 C s       :     2.909347  s :     2.909347
      pz      :     1.001307  p :     2.954336
      px      :     0.924376
      py      :     1.028652
      dz2     :     0.033402  d :     0.122464
      dxz     :     0.017614
      dyz     :     0.029579
      dx2y2   :     0.020571
      dxy     :     0.021297
 14 H s       :     0.888348  s :     0.888348
      pz      :     0.023298  p :     0.067713
      px      :     0.016223
      py      :     0.028192
 15 H s       :     0.893237  s :     0.893237
      pz      :     0.010033  p :     0.069743
      px      :     0.019014
      py      :     0.040695
 16 H s       :     0.901515  s :     0.901515
      pz      :     0.038612  p :     0.068903
      px      :     0.013573
      py      :     0.016718
 17 H s       :     0.899688  s :     0.899688
      pz      :     0.013213  p :     0.069149
      px      :     0.012009
      py      :     0.043927
 18 H s       :     0.888442  s :     0.888442
      pz      :     0.033429  p :     0.070548
      px      :     0.023148
      py      :     0.013971
 19 H s       :     0.902322  s :     0.902322
      pz      :     0.013645  p :     0.066323
      px      :     0.029242
      py      :     0.023435
 20 H s       :     0.901336  s :     0.901336
      pz      :     0.021190  p :     0.066261
      px      :     0.016971
      py      :     0.028101
 21 H s       :     0.909858  s :     0.909858
      pz      :     0.032263  p :     0.065438
      px      :     0.015651
      py      :     0.017524
 22 O s       :     3.538772  s :     3.538772
      pz      :     1.633128  p :     4.574702
      px      :     1.507421
      py      :     1.434153
      dz2     :     0.004725  d :     0.034966
      dxz     :     0.008277
      dyz     :     0.000609
      dx2y2   :     0.012391
      dxy     :     0.008964
 23 H s       :     0.815644  s :     0.815644
      pz      :     0.088288  p :     0.194995
      px      :     0.085169
      py      :     0.021537
 24 N s       :     3.416629  s :     3.416629
      pz      :     1.272147  p :     3.642744
      px      :     1.086679
      py      :     1.283918
      dz2     :     0.011911  d :     0.057747
      dxz     :     0.008871
      dyz     :     0.017347
      dx2y2   :     0.009799
      dxy     :     0.009819

SPIN
  0 O s       :    -0.000119  s :    -0.000119
      pz      :    -0.000001  p :     0.000540
      px      :    -0.000100
      py      :     0.000642
      dz2     :    -0.000008  d :    -0.000031
      dxz     :    -0.000004
      dyz     :    -0.000012
      dx2y2   :    -0.000005
      dxy     :    -0.000001
  1 C s       :    -0.000678  s :    -0.000678
      pz      :    -0.002507  p :    -0.003420
      px      :    -0.000689
      py      :    -0.000224
      dz2     :     0.000796  d :     0.000576
      dxz     :    -0.000104
      dyz     :    -0.000309
      dx2y2   :     0.000138
      dxy     :     0.000054
  2 O s       :     0.003127  s :     0.003127
      pz      :     0.024049  p :     0.005630
      px      :     0.021870
      py      :    -0.040289
      dz2     :     0.000399  d :     0.002423
      dxz     :     0.000145
      dyz     :     0.000445
      dx2y2   :     0.000960
      dxy     :     0.000474
  3 O s       :     0.010872  s :     0.010872
      pz      :     0.213549  p :     0.547772
      px      :     0.206622
      py      :     0.127601
      dz2     :    -0.000100  d :    -0.002530
      dxz     :    -0.001539
      dyz     :    -0.000328
      dx2y2   :    -0.000345
      dxy     :    -0.000218
  4 H s       :    -0.000827  s :    -0.000827
      pz      :     0.000044  p :    -0.000025
      px      :    -0.000004
      py      :    -0.000065
  5 H s       :    -0.001928  s :    -0.001928
      pz      :    -0.000025  p :    -0.000026
      px      :    -0.000064
      py      :     0.000062
  6 H s       :     0.001383  s :     0.001383
      pz      :     0.000025  p :    -0.000136
      px      :    -0.000170
      py      :     0.000008
  7 C s       :    -0.000395  s :    -0.000395
      pz      :    -0.000344  p :    -0.002593
      px      :    -0.001202
      py      :    -0.001047
      dz2     :     0.000102  d :     0.000387
      dxz     :     0.000154
      dyz     :    -0.000018
      dx2y2   :     0.000000
      dxy     :     0.000150
  8 C s       :     0.009198  s :     0.009198
      pz      :     0.030698  p :     0.048488
      px      :     0.005951
      py      :     0.011838
      dz2     :    -0.000154  d :     0.001885
      dxz     :     0.001293
      dyz     :    -0.000126
      dx2y2   :     0.000020
      dxy     :     0.000853
  9 C s       :    -0.000052  s :    -0.000052
      pz      :    -0.000062  p :    -0.000137
      px      :    -0.000088
      py      :     0.000014
      dz2     :    -0.000030  d :    -0.000063
      dxz     :     0.000002
      dyz     :    -0.000006
      dx2y2   :    -0.000011
      dxy     :    -0.000018
 10 C s       :    -0.000100  s :    -0.000100
      pz      :    -0.000074  p :    -0.000269
      px      :    -0.000154
      py      :    -0.000042
      dz2     :    -0.000007  d :    -0.000068
      dxz     :     0.000020
      dyz     :    -0.000012
      dx2y2   :    -0.000035
      dxy     :    -0.000033
 11 C s       :     0.001077  s :     0.001077
      pz      :     0.002763  p :     0.008678
      px      :     0.003722
      py      :     0.002192
      dz2     :     0.000398  d :     0.000766
      dxz     :    -0.000104
      dyz     :     0.000266
      dx2y2   :     0.000259
      dxy     :    -0.000053
 12 C s       :     0.052284  s :     0.052284
      pz      :     0.121310  p :     0.276110
      px      :     0.089374
      py      :     0.065426
      dz2     :     0.000824  d :     0.004155
      dxz     :     0.001357
      dyz     :     0.003511
      dx2y2   :    -0.001891
      dxy     :     0.000354
 13 C s       :     0.000109  s :     0.000109
      pz      :    -0.000782  p :    -0.001333
      px      :    -0.000145
      py      :    -0.000407
      dz2     :     0.000075  d :     0.000128
      dxz     :    -0.000012
      dyz     :     0.000073
      dx2y2   :    -0.000006
      dxy     :    -0.000002
 14 H s       :    -0.001422  s :    -0.001422
      pz      :     0.000916  p :     0.001366
      px      :     0.000108
      py      :     0.000342
 15 H s       :    -0.000087  s :    -0.000087
      pz      :    -0.000005  p :    -0.000005
      px      :    -0.000004
      py      :     0.000004
 16 H s       :    -0.000044  s :    -0.000044
      pz      :     0.000001  p :    -0.000003
      px      :    -0.000009
      py      :     0.000005
 17 H s       :    -0.000323  s :    -0.000323
      pz      :     0.000002  p :    -0.000013
      px      :     0.000002
      py      :    -0.000017
 18 H s       :    -0.000025  s :    -0.000025
      pz      :    -0.000007  p :    -0.000007
      px      :    -0.000004
      py      :     0.000004
 19 H s       :    -0.000477  s :    -0.000477
      pz      :     0.000140  p :     0.000255
      px      :     0.000004
      py      :     0.000110
 20 H s       :    -0.000483  s :    -0.000483
      pz      :     0.000122  p :     0.000240
      px      :     0.000036
      py      :     0.000082
 21 H s       :     0.002888  s :     0.002888
      pz      :    -0.000008  p :     0.000468
      px      :     0.000423
      py      :     0.000053
 22 O s       :     0.003317  s :     0.003317
      pz      :     0.049375  p :     0.041948
      px      :     0.016341
      py      :    -0.023768
      dz2     :     0.000182  d :     0.002537
      dxz     :     0.001178
      dyz     :     0.000087
      dx2y2   :     0.000296
      dxy     :     0.000794
 23 H s       :    -0.106296  s :    -0.106296
      pz      :     0.045330  p :     0.092914
      px      :     0.041736
      py      :     0.005848
 24 N s       :     0.000088  s :     0.000088
      pz      :     0.001214  p :     0.002347
      px      :     0.000059
      py      :     0.001074
      dz2     :    -0.000025  d :    -0.000040
      dxz     :    -0.000001
      dyz     :    -0.000003
      dx2y2   :    -0.000005
      dxy     :    -0.000005


                      *****************************
                      * MAYER POPULATION ANALYSIS *
                      *****************************

  NA   - Mulliken gross atomic population
  ZA   - Total nuclear charge
  QA   - Mulliken gross atomic charge
  VA   - Mayer's total valence
  BVA  - Mayer's bonded valence
  FA   - Mayer's free valence

  ATOM       NA         ZA         QA         VA         BVA        FA
  0 O      8.4200     8.0000    -0.4200     1.9906     1.9906     0.0000
  1 C      5.5001     6.0000     0.4999     3.8350     3.8350     0.0000
  2 O      8.3342     8.0000    -0.3342     1.8179     1.8098     0.0080
  3 O      8.1973     8.0000    -0.1973     1.9108     1.5554     0.3553
  4 H      0.7945     1.0000     0.2055     0.9986     0.9986     0.0000
  5 H      0.9441     1.0000     0.0559     0.9940     0.9940     0.0000
  6 H      0.9692     1.0000     0.0308     0.9964     0.9964     0.0000
  7 C      6.5449     6.0000    -0.5449     3.7960     3.7959     0.0000
  8 C      6.1509     6.0000    -0.1509     3.7428     3.7370     0.0058
  9 C      5.9655     6.0000     0.0345     3.8173     3.8173     0.0000
 10 C      5.9479     6.0000     0.0521     3.8137     3.8137     0.0000
 11 C      5.9543     6.0000     0.0457     3.8940     3.8938     0.0002
 12 C      5.7835     6.0000     0.2165     3.7740     3.5834     0.1906
 13 C      5.8977     6.0000     0.1023     3.8917     3.8917     0.0000
 14 H      0.9281     1.0000     0.0719     0.9796     0.9796     0.0000
 15 H      0.9135     1.0000     0.0865     0.9825     0.9825     0.0000
 16 H      0.9270     1.0000     0.0730     0.9836     0.9836     0.0000
 17 H      0.9207     1.0000     0.0793     0.9901     0.9901     0.0000
 18 H      0.9007     1.0000     0.0993     0.9909     0.9909     0.0000
 19 H      0.9351     1.0000     0.0649     0.9877     0.9877     0.0000
[...]
    TScaleTCutPNO_SD     =        1.000e+00
    TScalePNO_Core       =        1.000e-02
    TScaleTCutPairs_Somo =        3.300e-01
    TScaleTCutPairs_Core =        1.000e+00
    TCutPairs_MP2        =        1.000e-05
    TCutCMO              =        1.000e-03
    TCutCPAO             =        1.000e-03
Spin component scaling in ijab excitation            .... not used

Formation of guess energy and open-shell PNO.

NEV-PNO operators..
  E(ij->ab)
  E(ip->ab)
  E(pq->ra)
  E(ip->qr)
  E(ip->aq) and E(ip->qa)

   .... Finished loop over pairs

 PNO Occupation Number Statistics: 
  | Av. % of trace(Dij) retained        ...  99.132463813901
  | Av. % of trace(Dip) retained        ...  95.989345741660
  | Av. % of trace(Dpq) retained        ...  99.999998617784
  | sigma^2 in % of trace(Dij) retained ...   1.03e+00
  | sigma^2 in % of trace(Dip) retained ...   2.00e+01
  | sigma^2 in % of trace(Dpq) retained ...   0.00e+00
  | Av. % of trace(Di) retained         ...  99.999502593562
  | Av. % of trace(Dp) retained         ...  99.999999963897
  | sigma^2 in % of trace(Di) retained  ...   4.53e-08
  | sigma^2 in % of trace(Dp) retained  ...   0.00e+00
 Distributions of % trace(Dij) recovered:
  |       >= 99.9  ...   110 ( 34.6 % of all IJ-pairs)
  |   [90.0, 99.0) ...   112 ( 35.2 % of all IJ-pairs)
  |   [99.0, 99.9) ...    96 ( 30.2 % of all IJ-pairs)
 Distributions of % trace(Dip) recovered:
  |       >= 99.9  ...     3 (  9.1 % of all IP-pairs)
  |   [80.0, 90.0) ...     4 ( 12.1 % of all IP-pairs)
  |   [90.0, 99.0) ...    14 ( 42.4 % of all IP-pairs)
  |   [99.0, 99.9) ...    12 ( 36.4 % of all IP-pairs)
 Distributions of % trace(Dpq) recovered:
  |       >= 99.9  ...     1 (100.0 % of all PQ-pairs)
 Distributions of % trace(Di) recovered :
  |       >= 99.9  ...    36 (100.0 % of all I-pairs )
 Distributions of % trace(Dp) recovered :
  |       >= 99.9  ...     1 (100.0 % of all P-pairs )

                       ===========================
                        634 OF 1049 PAIRS ARE KEPT
                       ===========================

 Initial PAO correlation energy (all pairs)    ...  -1.9167118743 Eh
 Energy constituents in PAO basis (Eh):
  | Vijab(+0) ...  -1.7825391761
  | Viab (-1) ...  -0.0569181285
  | Va   (-1) ...  -0.0002088992
  | Vija (+1) ...  -0.0550437860
  | Via  (+0) ...  -0.0219629174
  | Vi   (+1) ...  -0.0000389671
 Initial PNO correlation energy                ...  -1.9045057072 Eh
 Energy constituents in PNO basis (Eh):
  | Vijab(+0) ...  -1.7730350193 (err=  0.0095041568)
  | Viab (-1) ...  -0.0551092562 (err=  0.0018088723)
  | Va   (-1) ...  -0.0002088992 (err=  0.0000000000)
  | Vija (+1) ...  -0.0541528920 (err=  0.0008908941)
  | Via  (+0) ...  -0.0219606827 (err=  0.0000022346)
  | Vi   (+1) ...  -0.0000389578 (err=  0.0000000093)
 Sum of total truncation errors ...   0.0122061670 Eh
  | Pair screening ...   0.0083630755 Eh
  | PNO truncation ...   0.0038430916 Eh

 UMP2 correlation energy (PAO) ...  -1.9069923104
  | alpha-alpha ...  -0.2423127596 (NP_aa=  524)
  | alpha-beta  ...  -1.4204781763 (NP_ab= 1048)
  | beta -beta  ...  -0.2442013746 (NP_bb=  488)
 UMP2 correlation energy (PNO) ...  -1.8947464058
  | alpha-alpha ...  -0.2391299695 (err=  0.0031827901, NP_aa=  315)
  | alpha-beta  ...  -1.4139296239 (err=  0.0065485524, NP_ab=  633)
  | beta -beta  ...  -0.2416868124 (err=  0.0025145622, NP_bb=  282)
 Sum of total UMP2 truncation errors ...   0.0122459047 Eh
  | Pair screening ...   0.0083770398 Eh
  | PNO truncation ...   0.0038688648 Eh
 Timing for NEV-PNO construction (sec.)
  | Intermediate construction  ..            0.005
  | Amplitude construction     ..            0.028
  | Total time                 ..            0.034
 Making pair pair interaction lists ...      ok
 Total size for 2-ext PNO integrals ...      2.4 MB
Checking the number of SOMO/SOMO doubles PNOs ... 
 #Truncate: (49, 49)[65] -> [62] .. 

--------------------------------
LOCAL RI TRANSFORMATION (VABPAO)
--------------------------------

Number of PAOs:     243
Basis functions:    242 (114 shells)
Aux. functions:     792 (280 shells)

Processing maps (0.0 sec)
Average map sizes:
   Aux shells -> PAOs            243.0
   PAOs       -> AO shells       112.5

Calculating integrals (0.7 sec, 698.756 MB)
Finished
-----------------------------
LOCAL RI TRANSFORMATION (IJV)
-----------------------------

Orbital window:      13 to 49
Basis functions:    242 (114 shells)
Aux. functions:     792 (280 shells)

Processing maps (0.0 sec)
Average map sizes:
   Aux shells -> MOs(i)           33.6
   Aux shells -> MOs(j)           37.0
   MOs        -> AO shells       103.4

Calculating integrals (0.2 sec, 7.572 MB)
Sorting integrals (0.0 sec, 7.563 MB)
Total time for the integral transformation: 0.3 sec


-------------------------------------
Pair Pair Term precalculation with     
RI-(ij|mn) and (im|jn) transformation  
ON THE FLY                             
-------------------------------------

   IBatch   1 (of   1)              ... done (    3.953 sec)
Total EXT                           ...           3.953 sec

---------------------
RI-PNO TRANSFORMATION
---------------------

Total Number of PNOs                   ... 13328
Total Number of IJ-PNOs                ... 12754
Total Number of IP-PNOs                ...   512
Total Number of PQ-PNOs                ...    62
Total Number of IJ-pairs               ...   600
Total Number of PI-pairs               ...    33
Total Number of PQ-pairs               ...     1
Average number of PNOs per pair        ...    21
Maximal number of PNOs per pair        ...    62
>> Statistics for ij-pairs..
   #pairs with  1 -  5 PNOs   :    0
   #pairs with  6 - 10 PNOs   :   20
   #pairs with 11 - 15 PNOs   :  136
   #pairs with 16 - 20 PNOs   :  100
   #pairs with 21 - 25 PNOs   :  156
   #pairs with 26 - 30 PNOs   :  137
   #pairs with 31 - 35 PNOs   :   45
   #pairs with 36 - 40 PNOs   :    6
   #pairs with 41 - 45 PNOs   :    0
   #pairs with 46 - 50 PNOs   :    0
>> Statistics for ip-pairs..
   #pairs with  1 -  5 PNOs   :    0
   #pairs with  6 - 10 PNOs   :   12
   #pairs with 11 - 15 PNOs   :    5
   #pairs with 16 - 20 PNOs   :    8
   #pairs with 21 - 25 PNOs   :    5
   #pairs with 26 - 30 PNOs   :    1
   #pairs with 31 - 35 PNOs   :    1
   #pairs with 36 - 40 PNOs   :    1
   #pairs with 41 - 45 PNOs   :    0
   #pairs with 46 - 50 PNOs   :    0
>> Statistics for pq-pairs..
   #pairs with  1 -  5 PNOs   :    0
   #pairs with  6 - 10 PNOs   :    0
   #pairs with 11 - 15 PNOs   :    0
   #pairs with 16 - 20 PNOs   :    0
   #pairs with 21 - 25 PNOs   :    0
   #pairs with 26 - 30 PNOs   :    0
   #pairs with 31 - 35 PNOs   :    0
   #pairs with 36 - 40 PNOs   :    0
   #pairs with 41 - 45 PNOs   :    0
   #pairs with 46 - 50 PNOs   :    0
   #pairs with 61 - 65 PNOs   :    1

Generation of (ij|ab)[P] integrals            ... on
Generation of (ia|bc)[P],(ja|bc)[P] integrals ... on
Storage of 3 and 4 external integrals         ... on
Generation of ALL (ka|bc)[P] integrals        ... on
Keep RI integrals in memory                   ... off

Ibatch:  1 (of  1)
Starting 2-4 index PNO integral generation ... done

Timings:
Total PNO integral transformation time     ...          4.153 sec
Size of the 3-external file                ...        35 MB
Size of the 4-external file                ...       130 MB
Size of the IKJL file                      ...         6 MB
Size of the all 3-external file            ...       634 MB
Size of the 1-external file                ...         6 MB

Size of the PAO/PNO coefficient matrices   ...      16.9 MB

Making pair/pair overlap matrices          ... done (    1.021 sec)
Size of the pair overlap file              ...     293.0 MB
Total # unrestricted pairs ...       1230
  # of alpha-alpha pairs   ...        315
  # of alpha-beta pairs    ...        633
  # of beta-beta pairs     ...        282
Constructing the guess amplitudes          ... done (    0.279 sec)

-------------------------
FINAL STARTUP INFORMATION
-------------------------

E(0)                                       ...   -663.067797672
E(SL-UMP2 in NEV-PNO space)                ...     -1.907634252
Initial E(tot)                             ...   -664.975431924
<T|T>                                      ...      0.420954752
Number of unrestricted pairs included      ... 1230
Total number of pairs                      ... 2628
----------------------------------------------------------
                     OPEN-SHELL COUPLED CLUSTER ITERATIONS
----------------------------------------------------------

Number of PNO amplitudes to be optimized        ...           572000
Number of canonical amplitudes for strong pairs ...         45586878
Untruncated number of canonical amplitudes      ...         97390938

Iter       E(tot)           E(Corr)          Delta-E          Residual     Time
  0   -664.983421826     -1.902736307      0.004897945      0.022816666    3.87
                           *** Turning on DIIS ***
  1   -665.067709507     -1.987023989     -0.084287681      0.020453588    3.87
  2   -665.127043253     -2.046357735     -0.059333746      0.009938038    3.91
  3   -665.142526102     -2.061840584     -0.015482849      0.004244652    3.88
  4   -665.147152586     -2.066467068     -0.004626484      0.005104393    3.91
  5   -665.148308703     -2.067623185     -0.001156117      0.002198122    3.90
  6   -665.148684087     -2.067998568     -0.000375383      0.001874777    3.90
  7   -665.148897315     -2.068211797     -0.000213228      0.000617971    3.88
  8   -665.148984009     -2.068298491     -0.000086695      0.000472616    3.89
  9   -665.149000058     -2.068314539     -0.000016048      0.000240609    3.89
 10   -665.149016693     -2.068331175     -0.000016635      0.000178220    3.89
 11   -665.149022999     -2.068337481     -0.000006306      0.000122106    3.88
 12   -665.149025814     -2.068340296     -0.000002816      0.000102493    3.92
 13   -665.149026938     -2.068341420     -0.000001124      0.000043742    3.88
 14   -665.149025662     -2.068340144      0.000001276      0.000025481    3.88
 15   -665.149025211     -2.068339693      0.000000451      0.000010787    3.89
 16   -665.149024842     -2.068339324      0.000000370      0.000006589    3.91
               --- The CCSD iterations have converged ---

E(0)                                       ...   -663.067797672
E(CORR)(strong-pairs)                      ...     -2.068339324
E(CORR)(weak-pairs)                        ...     -0.012887846
E(CORR)(corrected)                         ...     -2.081227170
E(TOT)                                     ...   -665.149024842
Singles norm <S|S>**1/2                    ...      0.145352304 ( 0.058357990, 0.086994313)  
T1 diagnostic                              ...      0.017012200                              
<S**2>(linearized)                         ...      0.7505409 (ideal value:      0.7500000)

----------------------
LARGEST PNO AMPLITUDES
----------------------
  23a-> 50a  23b-> 50b       0.086424
  42b-> 49b  -1b-> -1b       0.085952
  47a-> 50a  47b-> 50b       0.068931
  45a-> 50a  45b-> 50b       0.065339
  46a-> 50a  46b-> 50b       0.063120
  44a-> 50a  44b-> 50b       0.059535
  43a-> 50a  43b-> 50b       0.058358
  15b-> 49b  -1b-> -1b       0.057076
  48b-> 49b  -1b-> -1b       0.052201
  16b-> 49b  -1b-> -1b       0.050789
  43a-> 50a  44b-> 50b       0.049103
  44a-> 50a  43b-> 50b       0.049070
  49a-> 54a  48b-> 49b       0.042714
  45a-> 51a  46b-> 51b       0.040301
  46a-> 51a  45b-> 51b       0.040298
  30a-> 50a  30b-> 50b       0.040107

Total # unrestricted pairs ...        830
  # of alpha-alpha pairs   ...        209
  # of alpha-beta pairs    ...        415
  # of beta-beta pairs     ...        206

-------------------------------------------
DLPNO BASED TRIPLES CORRECTION
-------------------------------------------

Singles multiplier          ...  1.000000
Fragment selection                          .... not used
TCutTNO                     ... 1.000e-09
TCutMP2Pairs                ... 1.000e-05
TCutDOStrong                ... 2.000e-02
TCutMKNStrong               ... 1.000e-02
TCutDOWeak                  ... 4.000e-02
TCutMKNWeak                 ... 1.000e-01
NTCutTNO                    ... 1

Number of Triples that are to be computed         ...     15238

 . . . . . . . . .
10% done  
20% done  
30% done  
40% done  
50% done  
60% done  
70% done  
80% done  
90% done  
          Batch   1   done (     22.853 sec)

Triples-Correction TCutTNO=   1.000e-09 (NWeakPairs = 0  1  2  3)  -0.066565254246   -0.001206873156    0.000000000000    0.000000000000
Triples-Correction  -0.067772127401

Triples timings:
Total time                      ...    25.372 sec

Triples List generation         ...     0.000 sec
TNO generation                  ...     1.025 sec
Pair density generation         ...     0.031 sec
Look up tables                  ...     0.012 sec
Generating 3-index integrals    ...     5.816 sec
Make 4-ind.int. from 3-ind.int  ...     0.052 sec
Projecting amplitudes (D + S)   ...     8.822 sec
Sorting integrals for spin cases...     2.187 sec
Calculate W0/W1                 ...     3.703 sec
T0 Energy contr.(sum over a,b,c)...     2.250 sec

Everything after 3-index in T0  ...    18.658 sec

Energy contribution AAA         ...     0.729 sec
Energy contribution AAB         ...     3.681 sec
Energy contribution ABB         ...     3.427 sec
Energy contribution BBB         ...     0.310 sec
prep                ...     0.143 sec
makeTTNO            ...     8.325 sec
copyij              ...     0.007 sec
copyil              ...     0.155 sec
transposeij         ...     0.005 sec
newMatInDoubleProj  ...     0.346 sec
BlasInDoubleProj    ...     4.049 sec
ProjSingles         ...     0.093 sec
ProjDoubles         ...     8.729 sec
overall Doubles for projection      ... 1012035
used Doubles for projection         ... 1012035


Number of Triples   (0, 1, 2, 3 weak pairs; overall):   7175    5370       0       0  ( 12545)
Number of Atoms     (0, 1, 2, 3 weak pairs; overall):   14.1    12.1     0.0     0.0  (    25)
Number of PAOs      (0, 1, 2, 3 weak pairs; overall):  146.7   134.3     0.0     0.0  (   242)
Number of AuxFcns   (0, 1, 2, 3 weak pairs; overall):  261.4   222.4     0.0     0.0  (   792)
Number of TNOs (0, 1, 2, 3 weak pairs         ):   53.1    43.5     0.0     0.0
Aver. Number of NTNO, Atoms, PAOs, AuxFcns / Triples:  12545    49.0    13.2   141.4   244.7

Triples Correction (T)                     ...     -0.067772127
    alpha-alpha-alpha ... -0.001644627 (  2.4%)
    alpha-alpha-beta  ... -0.031759988 ( 46.9%)
    alpha-beta -beta  ... -0.032394364 ( 47.8%)
    beta -beta -beta  ... -0.001973148 (  2.9%)
Final correlation energy                   ...     -2.148999298
E(CCSD)                                    ...   -665.149024842
E(CCSD(T))                                 ...   -665.216796969

----------------------------
STATISTICS FOR PAIR-ENERGIES
----------------------------
Minimum, maximum and average ratios of UMP and CCSD pair-energies ... 0.66, 1.61, 1.03


------------------------------------------------------------------------------- 
                                     TIMINGS                                   
------------------------------------------------------------------------------- 


Total execution time                   ...      112.464 sec

Localization of occupied MO's          ...        0.573 sec (  0.5%)
Fock Matrix Formation                  ...        0.757 sec (  0.7%)
Differential overlap integrals         ...        0.083 sec (  0.1%)
Organizing maps                        ...        0.116 sec (  0.1%)
RI 3-index integral generations        ...        1.597 sec (  1.4%)
RI-PNO integral transformation         ...       10.435 sec (  9.3%)
Initial Guess                          ...        5.009 sec (  4.5%)
DIIS Solver                            ...        1.025 sec (  0.9%)
State Vector Update                    ...        0.186 sec (  0.2%)
Sigma-vector construction              ...       66.154 sec ( 58.8%)
  <0|H|D>                              ...        0.002 sec (  0.0% of sigma)
  <D|H|D>(0-ext)                       ...        4.561 sec (  6.9% of sigma)
  <D|H|D>(2-ext Fock)                  ...        0.016 sec (  0.0% of sigma)
  <D|H|D>(2-ext)                       ...       12.350 sec ( 18.7% of sigma)
  <D|H|D>(4-ext)                       ...        3.060 sec (  4.6% of sigma)
  <D|H|D>(4-ext-corr)                  ...       19.433 sec ( 29.4% of sigma)
  CCSD doubles correction              ...        0.416 sec (  0.6% of sigma)
  <S|H|S>                              ...        0.175 sec (  0.3% of sigma)
  <S|H|D>(1-ext)                       ...        0.471 sec (  0.7% of sigma)
  <D|H|S>(1-ext)                       ...        0.031 sec (  0.0% of sigma)
  <S|H|D>(3-ext)                       ...        0.185 sec (  0.3% of sigma)
  Fock-dressing                        ...       14.726 sec ( 22.3% of sigma)
  Singles amplitudes                   ...        1.171 sec (  1.8% of sigma)
  (ik|jl)-dressing                     ...        4.256 sec (  6.4% of sigma)
  (ij|ab),(ia|jb)-dressing             ...        3.710 sec (  5.6% of sigma)
  Pair energies                        ...        0.019 sec (  0.0% of sigma)
Total Time for computing (T)           ...       26.158 sec ( 23.3% of ALL)


-------------------------   --------------------
FINAL SINGLE POINT ENERGY      -665.216796969329
-------------------------   --------------------


                            ***************************************
                            *     ORCA property calculations      *
                            ***************************************

                                    ---------------------
                                    Active property flags
                                    ---------------------
   (+) Dipole Moment


------------------------------------------------------------------------------
                       ORCA ELECTRIC PROPERTIES CALCULATION
------------------------------------------------------------------------------

Dipole Moment Calculation                       ... on
Quadrupole Moment Calculation                   ... off
Polarizability Calculation                      ... off
GBWName                                         ... id0.gbw
Electron density file                           ... id0.scfp
The origin for moment calculation is the CENTER OF MASS  = ( 0.893885, -2.497895 -2.745115)

-------------
DIPOLE MOMENT
-------------
                                X             Y             Z
Electronic contribution:      0.56837       1.35684       6.75812
Nuclear contribution   :     -1.06128      -0.86058      -8.63014
                        -----------------------------------------
Total Dipole Moment    :     -0.49292       0.49626      -1.87202
                        -----------------------------------------
Magnitude (a.u.)       :      1.99842
Magnitude (Debye)      :      5.07959



--------------------
Rotational spectrum 
--------------------
 
Rotational constants in cm-1:     0.034689     0.018467     0.015941 
Rotational constants in MHz :  1039.952828   553.638661   477.888061 

 Dipole components along the rotational axes: 
x,y,z [a.u.] :    -1.603563     0.018008    -1.192459 
x,y,z [Debye]:    -4.075934     0.045774    -3.030990 

 

Timings for individual modules:

Sum of individual times         ...      133.882 sec (=   2.231 min)
GTO integral calculation        ...        0.741 sec (=   0.012 min)   0.6 %
SCF iterations                  ...       20.086 sec (=   0.335 min)  15.0 %
MDCI module                     ...      113.055 sec (=   1.884 min)  84.4 %
                             ****ORCA TERMINATED NORMALLY****
TOTAL RUN TIME: 0 days 0 hours 2 minutes 14 seconds 370 msec
