 Entering Gaussian System, Link 0=/home/gridsan/groups/RMG/Software/gaussian/g16/g16
 Initial command:
 /home/gridsan/groups/RMG/Software/gaussian/g16/l1.exe "/state/partition1/slurm_tmp/23853856.4294967291.0/oscarwu/23853856-125-373-540/20817/Gau-3523196.inp" -scrdir="/state/partition1/slurm_tmp/23853856.4294967291.0/oscarwu/23853856-125-373-540/20817/"
 Entering Link 1 = /home/gridsan/groups/RMG/Software/gaussian/g16/l1.exe PID=   3523198.
  
 Copyright (c) 1988-2021, Gaussian, Inc.  All Rights Reserved.
  
 This is part of the Gaussian(R) 16 program.  It is based on
 the Gaussian(R) 09 system (copyright 2009, Gaussian, Inc.),
 the Gaussian(R) 03 system (copyright 2003, Gaussian, Inc.),
 the Gaussian(R) 98 system (copyright 1998, Gaussian, Inc.),
 the Gaussian(R) 94 system (copyright 1995, Gaussian, Inc.),
 the Gaussian 92(TM) system (copyright 1992, Gaussian, Inc.),
 the Gaussian 90(TM) system (copyright 1990, Gaussian, Inc.),
 the Gaussian 88(TM) system (copyright 1988, Gaussian, Inc.),
 the Gaussian 86(TM) system (copyright 1986, Carnegie Mellon
 University), and the Gaussian 82(TM) system (copyright 1983,
 Carnegie Mellon University). Gaussian is a federally registered
 trademark of Gaussian, Inc.
  
 This software contains proprietary and confidential information,
 including trade secrets, belonging to Gaussian, Inc.
  
 This software is provided under written license and may be
 used, copied, transmitted, or stored only in accord with that
 written license.
  
 The following legend is applicable only to US Government
 contracts under FAR:
  
                    RESTRICTED RIGHTS LEGEND
  
 Use, reproduction and disclosure by the US Government is
 subject to restrictions as set forth in subparagraphs (a)
 and (c) of the Commercial Computer Software - Restricted
 Rights clause in FAR 52.227-19.
  
 Gaussian, Inc.
 340 Quinnipiac St., Bldg. 40, Wallingford CT 06492
  
  
 ---------------------------------------------------------------
 Warning -- This program may not be used in any manner that
 competes with the business of Gaussian, Inc. or will provide
 assistance to any competitor of Gaussian, Inc.  The licensee
 of this program is prohibited from giving any competitor of
 Gaussian, Inc. access to this program.  By using this program,
 the user acknowledges that Gaussian, Inc. is engaged in the
 business of creating and licensing software in the field of
 computational chemistry and represents and warrants to the
 licensee that it is not a competitor of Gaussian, Inc. and that
 it will not use this program in any manner prohibited above.
 ---------------------------------------------------------------
  

 Cite this work as:
 Gaussian 16, Revision C.02,
 M. J. Frisch, G. W. Trucks, H. B. Schlegel, G. E. Scuseria, 
 M. A. Robb, J. R. Cheeseman, G. Scalmani, V. Barone, 
 G. A. Petersson, H. Nakatsuji, X. Li, M. Caricato, A. V. Marenich, 
 J. Bloino, B. G. Janesko, R. Gomperts, B. Mennucci, H. P. Hratchian, 
 J. V. Ortiz, A. F. Izmaylov, J. L. Sonnenberg, D. Williams-Young, 
 F. Ding, F. Lipparini, F. Egidi, J. Goings, B. Peng, A. Petrone, 
 T. Henderson, D. Ranasinghe, V. G. Zakrzewski, J. Gao, N. Rega, 
 G. Zheng, W. Liang, M. Hada, M. Ehara, K. Toyota, R. Fukuda, 
 J. Hasegawa, M. Ishida, T. Nakajima, Y. Honda, O. Kitao, H. Nakai, 
 T. Vreven, K. Throssell, J. A. Montgomery, Jr., J. E. Peralta, 
 F. Ogliaro, M. J. Bearpark, J. J. Heyd, E. N. Brothers, K. N. Kudin, 
 V. N. Staroverov, T. A. Keith, R. Kobayashi, J. Normand, 
 K. Raghavachari, A. P. Rendell, J. C. Burant, S. S. Iyengar, 
 J. Tomasi, M. Cossi, J. M. Millam, M. Klene, C. Adamo, R. Cammi, 
 J. W. Ochterski, R. L. Martin, K. Morokuma, O. Farkas, 
 J. B. Foresman, and D. J. Fox, Gaussian, Inc., Wallingford CT, 2019.
 
 ******************************************
 Gaussian 16:  ES64L-G16RevC.02  7-Dec-2021
                20-Sep-2023 
 ******************************************
 %chk=20817.chk
 %nprocshared=16
 Will use up to   16 processors via shared memory.
 %mem=62400mb
 ----------------------------------------------------------------------
 #P opt=(calcfc,maxcycle=128,noeig,nomicro,cartesian) freq scf=(xqc) io
 p(7/33=1) iop(2/9=2000) guess=mix wb97xd/def2svp
 ----------------------------------------------------------------------
 1/6=128,10=4,11=1,18=10,26=3,38=1/1,3;
 2/9=2000,12=2,17=6,18=5,29=2,40=1/2;
 3/5=43,7=101,11=2,25=1,30=1,71=2,74=-58,140=1/1,2,3;
 4/13=-1/1;
 5/5=2,8=3,13=1,38=5/2,8;
 8/6=4,10=90,11=11/1;
 11/6=1,8=1,9=11,15=111,16=1/1,2,10;
 10/6=1,13=1/2;
 6/7=2,8=2,9=2,10=2,28=1/1;
 7/7=1,10=1,25=1,33=1/1,2,3,16;
 1/6=128,10=4,11=1,18=10,26=3/3(2);
 2/9=2000,29=1/2;
 99/12=1/99;
 2/9=2000,29=1/2;
 3/5=43,7=101,11=2,25=1,30=1,71=1,74=-58/1,2,3;
 4/5=5,16=3,69=1/1;
 5/5=2,8=3,13=1,38=5/2,8;
 7/7=1,33=1/1,2,3,16;
 1/6=128,11=1,18=10,26=3/3(-5);
 2/9=2000,29=1/2;
 6/7=2,8=2,9=2,10=2,19=2,28=1/1;
 99/9=1,12=1/99;
 Leave Link    1 at Wed Sep 20 15:18:57 2023, MaxMem=  8178892800 cpu:               0.1 elap:               0.0
 (Enter /home/gridsan/groups/RMG/Software/gaussian/g16/l101.exe)
 -----
 20817
 -----
 Symbolic Z-matrix:
 Charge =  0 Multiplicity = 1
 C                     2.17146   1.20379  -0.20219 
 C                     1.17511   0.07657  -0.06205 
 C                    -0.20734   0.37045  -0.65854 
 C                    -1.01882   1.29682   0.1988 
 C                    -2.13649   0.69913   0.57003 
 C                    -2.19517  -0.67203  -0.02603 
 O                    -0.98706  -0.81865  -0.75426 
 C                     1.25014  -0.83467   1.10225 
 N                     1.70636  -1.25732  -0.20683 
 H                     2.23502   1.52615  -1.23963 
 H                     3.15085   0.85535   0.11179 
 H                     1.88173   2.05348   0.41284 
 H                    -0.06223   0.77874  -1.6729 
 H                    -0.67859   2.28288   0.44909 
 H                    -2.92222   1.08155   1.19366 
 H                    -2.26739  -1.45761   0.73969 
 H                    -3.04768  -0.78593  -0.71086 
 H                     2.03748  -0.69256   1.83056 
 H                     0.33319  -1.24576   1.50671 
 H                     1.05842  -1.88633  -0.67268 
 
 ITRead=  0  0  0  0  0  0  0  0  0  0  0  0  0  0  0  0  0  0  0  0
 MicOpt= -1 -1 -1 -1 -1 -1 -1 -1 -1 -1 -1 -1 -1 -1 -1 -1 -1 -1 -1 -1
 NAtoms=     20 NQM=       20 NQMF=       0 NMMI=      0 NMMIF=      0
                NMic=       0 NMicF=      0.
                    Isotopes and Nuclear Properties:
 (Nuclear quadrupole moments (NQMom) in fm**2, nuclear magnetic moments (NMagM)
  in nuclear magnetons)

  Atom         1           2           3           4           5           6           7           8           9          10
 IAtWgt=          12          12          12          12          12          12          16          12          14           1
 AtmWgt=  12.0000000  12.0000000  12.0000000  12.0000000  12.0000000  12.0000000  15.9949146  12.0000000  14.0030740   1.0078250
 NucSpn=           0           0           0           0           0           0           0           0           2           1
 AtZEff=  -0.0000000  -0.0000000  -0.0000000  -0.0000000  -0.0000000  -0.0000000  -0.0000000  -0.0000000  -0.0000000  -0.0000000
 NQMom=    0.0000000   0.0000000   0.0000000   0.0000000   0.0000000   0.0000000   0.0000000   0.0000000   2.0440000   0.0000000
 NMagM=    0.0000000   0.0000000   0.0000000   0.0000000   0.0000000   0.0000000   0.0000000   0.0000000   0.4037610   2.7928460
 AtZNuc=   6.0000000   6.0000000   6.0000000   6.0000000   6.0000000   6.0000000   8.0000000   6.0000000   7.0000000   1.0000000

  Atom        11          12          13          14          15          16          17          18          19          20
 IAtWgt=           1           1           1           1           1           1           1           1           1           1
 AtmWgt=   1.0078250   1.0078250   1.0078250   1.0078250   1.0078250   1.0078250   1.0078250   1.0078250   1.0078250   1.0078250
 NucSpn=           1           1           1           1           1           1           1           1           1           1
 AtZEff=  -0.0000000  -0.0000000  -0.0000000  -0.0000000  -0.0000000  -0.0000000  -0.0000000  -0.0000000  -0.0000000  -0.0000000
 NQMom=    0.0000000   0.0000000   0.0000000   0.0000000   0.0000000   0.0000000   0.0000000   0.0000000   0.0000000   0.0000000
 NMagM=    2.7928460   2.7928460   2.7928460   2.7928460   2.7928460   2.7928460   2.7928460   2.7928460   2.7928460   2.7928460
 AtZNuc=   1.0000000   1.0000000   1.0000000   1.0000000   1.0000000   1.0000000   1.0000000   1.0000000   1.0000000   1.0000000
 Leave Link  101 at Wed Sep 20 15:18:58 2023, MaxMem=  8178892800 cpu:               0.1 elap:               0.1
 (Enter /home/gridsan/groups/RMG/Software/gaussian/g16/l103.exe)

 GradGradGradGradGradGradGradGradGradGradGradGradGradGradGradGradGradGrad
 Berny optimization.
 Initialization pass.
 No Z-matrix variables, so optimization will use Cartesian coordinates.
 Trust Radius=3.00D-01 FncErr=1.00D-07 GrdErr=1.00D-06 EigMax=2.50D+02 EigMin=1.00D-04
 Number of steps in this run=    120 maximum allowed number of steps=    120.
 GradGradGradGradGradGradGradGradGradGradGradGradGradGradGradGradGradGrad

 Leave Link  103 at Wed Sep 20 15:18:58 2023, MaxMem=  8178892800 cpu:               0.1 elap:               0.0
 (Enter /home/gridsan/groups/RMG/Software/gaussian/g16/l202.exe)
 ---------------------------------------------------------------------------------------------------
                            Z-MATRIX (ANGSTROMS AND DEGREES)
   CD    Cent   Atom    N1       Length/X        N2       Alpha/Y        N3        Beta/Z          J
 ---------------------------------------------------------------------------------------------------
      1      1  C        0   2.171460          1.203793         -0.202192
      2      2  C        0   1.175110          0.076574         -0.062046
      3      3  C        0  -0.207337          0.370451         -0.658537
      4      4  C        0  -1.018820          1.296816          0.198804
      5      5  C        0  -2.136493          0.699131          0.570025
      6      6  C        0  -2.195167         -0.672025         -0.026029
      7      7  O        0  -0.987059         -0.818646         -0.754264
      8      8  C        0   1.250142         -0.834670          1.102254
      9      9  N        0   1.706362         -1.257315         -0.206832
     10     10  H        0   2.235021          1.526151         -1.239633
     11     11  H        0   3.150850          0.855349          0.111786
     12     12  H        0   1.881733          2.053480          0.412837
     13     13  H        0  -0.062230          0.778740         -1.672896
     14     14  H        0  -0.678593          2.282877          0.449088
     15     15  H        0  -2.922220          1.081547          1.193656
     16     16  H        0  -2.267394         -1.457608          0.739689
     17     17  H        0  -3.047676         -0.785934         -0.710860
     18     18  H        0   2.037482         -0.692555          1.830556
     19     19  H        0   0.333186         -1.245759          1.506709
     20     20  H        0   1.058421         -1.886332         -0.672677
 ---------------------------------------------------------------------------------------------------
                         Z-Matrix orientation:                         
 ---------------------------------------------------------------------
 Center     Atomic      Atomic             Coordinates (Angstroms)
 Number     Number       Type             X           Y           Z
 ---------------------------------------------------------------------
      1          6           0        2.171460    1.203793   -0.202192
      2          6           0        1.175110    0.076574   -0.062046
      3          6           0       -0.207337    0.370451   -0.658537
      4          6           0       -1.018820    1.296816    0.198804
      5          6           0       -2.136493    0.699131    0.570025
      6          6           0       -2.195167   -0.672025   -0.026029
      7          8           0       -0.987059   -0.818646   -0.754264
      8          6           0        1.250142   -0.834670    1.102254
      9          7           0        1.706362   -1.257315   -0.206832
     10          1           0        2.235021    1.526151   -1.239633
     11          1           0        3.150850    0.855349    0.111786
     12          1           0        1.881733    2.053480    0.412837
     13          1           0       -0.062230    0.778740   -1.672896
     14          1           0       -0.678593    2.282877    0.449088
     15          1           0       -2.922220    1.081547    1.193656
     16          1           0       -2.267394   -1.457608    0.739689
     17          1           0       -3.047676   -0.785934   -0.710860
     18          1           0        2.037482   -0.692555    1.830556
     19          1           0        0.333186   -1.245759    1.506709
     20          1           0        1.058421   -1.886332   -0.672677
 ---------------------------------------------------------------------
                    Distance matrix (angstroms):
                    1          2          3          4          5
     1  C    0.000000
     2  C    1.510952   0.000000
     3  C    2.561520   1.534055   0.000000
     4  C    3.216728   2.523958   1.500563   0.000000
     5  C    4.405617   3.428382   2.310636   1.320691   0.000000
     6  C    4.755750   3.452603   2.332014   2.304491   1.496259
     7  O    3.790948   2.440401   1.425160   2.320458   2.319178
     8  C    2.589544   1.480402   2.583979   3.241549   3.755677
     9  N    2.504674   1.443070   2.552627   3.756959   4.381635
    10  H    1.088227   2.147416   2.763771   3.564993   4.803016
    11  H    1.085910   2.130788   3.479360   4.193878   5.309462
    12  H    1.088196   2.152438   2.888709   3.005255   4.243243
    13  H    2.707953   2.149159   1.103032   2.164885   3.056076
    14  H    3.116310   2.926644   2.259710   1.072713   2.156003
    15  H    5.282889   4.401690   3.362568   2.158472   1.073557
    16  H    5.260572   3.853223   3.088798   3.072189   2.167359
    17  H    5.608666   4.358532   3.067163   3.046571   2.162484
    18  H    2.783191   2.217473   3.516359   3.995146   4.576876
    19  H    3.507121   2.217745   2.755465   3.162787   3.280135
    20  H    3.317994   2.059001   2.587550   3.899595   4.293763
                    6          7          8          9         10
     6  C    0.000000
     7  O    1.418220   0.000000
     8  C    3.628998   2.907230   0.000000
     9  N    3.949327   2.783277   1.449300   0.000000
    10  H    5.092286   4.014406   3.468126   3.015600   0.000000
    11  H    5.561633   4.546932   2.729447   2.579033   1.764951
    12  H    4.923626   4.223884   3.035723   3.372849   1.770182
    13  H    3.060443   2.061755   3.467978   3.069655   2.454323
    14  H    3.355172   3.341056   3.723673   4.318704   3.451602
    15  H    2.256380   3.339158   4.592259   5.371724   5.719764
    16  H    1.099400   2.068677   3.590622   4.089836   5.752588
    17  H    1.099427   2.061334   4.664868   4.803865   5.790702
    18  H    4.621974   3.980583   1.081908   2.139987   3.793117
    19  H    3.011814   2.652823   1.083230   2.195898   4.340836
    20  H    3.532496   2.308809   2.071987   1.016121   3.653884
                   11         12         13         14         15
    11  H    0.000000
    12  H    1.771103   0.000000
    13  H    3.676254   3.123177   0.000000
    14  H    4.100761   2.570838   2.673041   0.000000
    15  H    6.172827   4.963093   4.060586   2.651686   0.000000
    16  H    5.924643   5.445165   3.960375   4.074306   2.661239
    17  H    6.464695   5.798624   3.505226   4.046682   2.670282
    18  H    2.567054   3.094332   4.341391   4.258957   5.305820
    19  H    3.781494   3.805198   3.790097   3.820148   4.013979
    20  H    3.537012   4.168729   3.059233   4.653803   5.304433
                   16         17         18         19         20
    16  H    0.000000
    17  H    1.778786   0.000000
    18  H    4.506357   5.685626   0.000000
    19  H    2.719599   4.069309   1.820861   0.000000
    20  H    3.638630   4.251161   2.941061   2.384538   0.000000
 Stoichiometry    C7H11NO
 Framework group  C1[X(C7H11NO)]
 Deg. of freedom    54
 Full point group                 C1      NOp   1
 Largest Abelian subgroup         C1      NOp   1
 Largest concise Abelian subgroup C1      NOp   1
                         Standard orientation:                         
 ---------------------------------------------------------------------
 Center     Atomic      Atomic             Coordinates (Angstroms)
 Number     Number       Type             X           Y           Z
 ---------------------------------------------------------------------
      1          6           0        2.171460    1.203793   -0.202192
      2          6           0        1.175110    0.076574   -0.062046
      3          6           0       -0.207337    0.370451   -0.658537
      4          6           0       -1.018820    1.296816    0.198804
      5          6           0       -2.136493    0.699131    0.570025
      6          6           0       -2.195167   -0.672025   -0.026029
      7          8           0       -0.987059   -0.818646   -0.754264
      8          6           0        1.250142   -0.834670    1.102254
      9          7           0        1.706362   -1.257315   -0.206832
     10          1           0        2.235021    1.526151   -1.239633
     11          1           0        3.150850    0.855349    0.111786
     12          1           0        1.881733    2.053480    0.412837
     13          1           0       -0.062230    0.778740   -1.672896
     14          1           0       -0.678593    2.282877    0.449088
     15          1           0       -2.922220    1.081547    1.193656
     16          1           0       -2.267394   -1.457608    0.739689
     17          1           0       -3.047676   -0.785934   -0.710860
     18          1           0        2.037482   -0.692555    1.830556
     19          1           0        0.333186   -1.245759    1.506709
     20          1           0        1.058421   -1.886332   -0.672677
 ---------------------------------------------------------------------
 Rotational constants (GHZ):           3.1194029           1.3682202           1.1589633
 Leave Link  202 at Wed Sep 20 15:18:58 2023, MaxMem=  8178892800 cpu:               0.1 elap:               0.0
 (Enter /home/gridsan/groups/RMG/Software/gaussian/g16/l301.exe)
 Standard basis: def2SVP (5D, 7F)
 Ernie: Thresh=  0.10000D-02 Tol=  0.10000D-05 Strict=F.
 There are   190 symmetry adapted cartesian basis functions of A   symmetry.
 There are   181 symmetry adapted basis functions of A   symmetry.
   181 basis functions,   302 primitive gaussians,   190 cartesian basis functions
    34 alpha electrons       34 beta electrons
       nuclear repulsion energy       470.0771779305 Hartrees.
 IExCor= 4639 DFT=T Ex+Corr=wB97XD ExCW=0 ScaHFX=  1.000000
 ScaDFX=  1.000000  1.000000  1.000000  1.000000 ScalE2=  1.000000  1.000000
 IRadAn=      5 IRanWt=     -1 IRanGd=            0 ICorTp=0 IEmpDi=121
 HFx  wShort=  0.000000 wLong=  0.200000 cFull=  0.222036 cShort=  0.000000 cLong=  0.777964
 DFx  wShort=  0.000000 wLong=  0.200000 cFull=  0.000000 cShort=  0.000000 cLong=  1.000000
 NAtoms=   20 NActive=   20 NUniq=   20 SFac= 1.00D+00 NAtFMM=   60 NAOKFM=F Big=F
 Integral buffers will be    131072 words long.
 Raffenetti 2 integral format.
 Two-electron integral symmetry is turned on.
 R6Disp:  Grimme-D2 Dispersion energy=       -0.0125463569 Hartrees.
 Nuclear repulsion after empirical dispersion term =      470.0646315736 Hartrees.
 Leave Link  301 at Wed Sep 20 15:18:58 2023, MaxMem=  8178892800 cpu:               0.1 elap:               0.1
 (Enter /home/gridsan/groups/RMG/Software/gaussian/g16/l302.exe)
 NPDir=0 NMtPBC=     1 NCelOv=     1 NCel=       1 NClECP=     1 NCelD=      1
         NCelK=      1 NCelE2=     1 NClLst=     1 CellRange=     0.0.
 One-electron integrals computed using PRISM.
 One-electron integral symmetry used in STVInt
   1 Symmetry operations used in ECPInt.
 ECPInt:  NShTT=    3828 NPrTT=   13516 LenC2=    3807 LenP2D=   10911.
 LDataN:  DoStor=T MaxTD1= 4 Len=   56
 NBasis=   181 RedAO= T EigKep=  8.35D-04  NBF=   181
 NBsUse=   181 1.00D-06 EigRej= -1.00D+00 NBFU=   181
 Precomputing XC quadrature grid using
 IXCGrd= 4 IRadAn=           5 IRanWt=          -1 IRanGd=           0 AccXCQ= 0.00D+00.
 Generated NRdTot=       0 NPtTot=           0 NUsed=           0 NTot=          32
 NSgBfM=   190   190   190   190   190 MxSgAt=    20 MxSgA2=    20.
 Leave Link  302 at Wed Sep 20 15:18:58 2023, MaxMem=  8178892800 cpu:               1.6 elap:               0.2
 (Enter /home/gridsan/groups/RMG/Software/gaussian/g16/l303.exe)
 DipDrv:  MaxL=1.
 Leave Link  303 at Wed Sep 20 15:18:58 2023, MaxMem=  8178892800 cpu:               0.1 elap:               0.0
 (Enter /home/gridsan/groups/RMG/Software/gaussian/g16/l401.exe)
 ExpMin= 1.22D-01 ExpMax= 2.27D+03 ExpMxC= 3.41D+02 IAcc=3 IRadAn=         5 AccDes= 0.00D+00
 Harris functional with IExCor= 4639 and IRadAn=       5 diagonalized for initial guess.
 HarFok:  IExCor= 4639 AccDes= 0.00D+00 IRadAn=         5 IDoV= 1 UseB2=F ITyADJ=14
 ICtDFT=  3500011 ScaDFX=  1.000000  1.000000  1.000000  1.000000
 FoFCou: FMM=F IPFlag=           0 FMFlag=      100000 FMFlg1=           0
         NFxFlg=           0 DoJE=T BraDBF=F KetDBF=T FulRan=T
         wScrn=  0.000000 ICntrl=       500 IOpCl=  0 I1Cent=   200000004 NGrid=           0
         NMat0=    1 NMatS0=      1 NMatT0=    0 NMatD0=    1 NMtDS0=    0 NMtDT0=    0
 Petite list used in FoFCou.
 Harris En= -385.036516176397    
 JPrj=0 DoOrth=F DoCkMO=T.
 Mixing orbitals, IMix= 1 IMixAn=  0 NRI=1 NE=   34 Coef=  7.07106781D-01  7.07106781D-01
 Leave Link  401 at Wed Sep 20 15:18:58 2023, MaxMem=  8178892800 cpu:               5.6 elap:               0.4
 (Enter /home/gridsan/groups/RMG/Software/gaussian/g16/l502.exe)
 Integral symmetry usage will be decided dynamically.
 Closed shell SCF:
 Using DIIS extrapolation, IDIIS=  1040.
 NGot=  8178892800 LenX=  8178814906 LenY=  8178778365
 Requested convergence on RMS density matrix=1.00D-08 within  32 cycles.
 Requested convergence on MAX density matrix=1.00D-06.
 Requested convergence on             energy=1.00D-06.
 No special actions if energy rises.
 Fock matrices will be formed incrementally for  20 cycles.
 Integral accuracy reduced to 1.0D-05 until final iterations.

 Cycle   1  Pass 0  IDiag  1:
 FoFJK:  IHMeth= 1 ICntrl=       0 DoSepK=T KAlg= 0 I1Cent=           0 FoldK=F
 IRaf=         1 NMat=       1 IRICut=       1 DoRegI=T DoRafI=F ISym2E= 0 IDoP0=0 IntGTp=1.
 FoFCou: FMM=F IPFlag=           0 FMFlag=      100000 FMFlg1=           0
         NFxFlg=           0 DoJE=T BraDBF=F KetDBF=F FulRan=T
         wScrn=  0.000000 ICntrl=       500 IOpCl=  0 I1Cent=           0 NGrid=           0
         NMat0=    1 NMatS0=      1 NMatT0=    0 NMatD0=    1 NMtDS0=    0 NMtDT0=    0
 Symmetry not used in FoFCou.
 E= -402.284968501525    
 DIIS: error= 3.84D-02 at cycle   1 NSaved=   1.
 NSaved= 1 IEnMin= 1 EnMin= -402.284968501525     IErMin= 1 ErrMin= 3.84D-02
 ErrMax= 3.84D-02  0.00D+00 EMaxC= 1.00D-01 BMatC= 5.23D-01 BMatP= 5.23D-01
 IDIUse=3 WtCom= 6.16D-01 WtEn= 3.84D-01
 Coeff-Com:  0.100D+01
 Coeff-En:   0.100D+01
 Coeff:      0.100D+01
 Gap=     0.158 Goal=   None    Shift=    0.000
 GapD=    0.158 DampG=1.000 DampE=0.500 DampFc=0.5000 IDamp=-1.
 Damping current iteration by 5.00D-01
 RMSDP=8.87D-03 MaxDP=2.78D-01              OVMax= 3.31D-01

 Cycle   2  Pass 0  IDiag  1:
 RMSU=  4.38D-03    CP:  9.71D-01
 E= -402.517275970733     Delta-E=       -0.232307469208 Rises=F Damp=T
 DIIS: error= 1.82D-02 at cycle   2 NSaved=   2.
 NSaved= 2 IEnMin= 2 EnMin= -402.517275970733     IErMin= 2 ErrMin= 1.82D-02
 ErrMax= 1.82D-02  0.00D+00 EMaxC= 1.00D-01 BMatC= 7.25D-02 BMatP= 5.23D-01
 IDIUse=3 WtCom= 8.18D-01 WtEn= 1.82D-01
 Coeff-Com:  0.112D+00 0.888D+00
 Coeff-En:   0.747D-01 0.925D+00
 Coeff:      0.106D+00 0.894D+00
 Gap=     0.531 Goal=   None    Shift=    0.000
 RMSDP=3.55D-03 MaxDP=7.39D-02 DE=-2.32D-01 OVMax= 1.21D-01

 Cycle   3  Pass 0  IDiag  1:
 RMSU=  3.43D-03    CP:  9.43D-01  1.14D+00
 E= -402.833676918844     Delta-E=       -0.316400948111 Rises=F Damp=F
 DIIS: error= 5.27D-03 at cycle   3 NSaved=   3.
 NSaved= 3 IEnMin= 3 EnMin= -402.833676918844     IErMin= 3 ErrMin= 5.27D-03
 ErrMax= 5.27D-03  0.00D+00 EMaxC= 1.00D-01 BMatC= 5.99D-03 BMatP= 7.25D-02
 IDIUse=3 WtCom= 9.47D-01 WtEn= 5.27D-02
 Coeff-Com:  0.324D-01-0.812D-01 0.105D+01
 Coeff-En:   0.000D+00 0.000D+00 0.100D+01
 Coeff:      0.307D-01-0.769D-01 0.105D+01
 Gap=     0.375 Goal=   None    Shift=    0.000
 RMSDP=1.49D-03 MaxDP=2.17D-02 DE=-3.16D-01 OVMax= 8.50D-02

 Cycle   4  Pass 0  IDiag  1:
 RMSU=  1.02D-03    CP:  9.34D-01  1.09D+00  1.30D+00
 E= -402.849765868893     Delta-E=       -0.016088950049 Rises=F Damp=F
 DIIS: error= 2.34D-03 at cycle   4 NSaved=   4.
 NSaved= 4 IEnMin= 4 EnMin= -402.849765868893     IErMin= 4 ErrMin= 2.34D-03
 ErrMax= 2.34D-03  0.00D+00 EMaxC= 1.00D-01 BMatC= 1.49D-03 BMatP= 5.99D-03
 IDIUse=3 WtCom= 9.77D-01 WtEn= 2.34D-02
 Coeff-Com: -0.326D-02-0.387D-01 0.296D+00 0.746D+00
 Coeff-En:   0.000D+00 0.000D+00 0.000D+00 0.100D+01
 Coeff:     -0.318D-02-0.378D-01 0.289D+00 0.752D+00
 Gap=     0.387 Goal=   None    Shift=    0.000
 RMSDP=3.88D-04 MaxDP=9.66D-03 DE=-1.61D-02 OVMax= 2.67D-02

 Cycle   5  Pass 0  IDiag  1:
 RMSU=  3.21D-04    CP:  9.31D-01  1.13D+00  1.32D+00  1.09D+00
 E= -402.852512279783     Delta-E=       -0.002746410890 Rises=F Damp=F
 DIIS: error= 1.26D-03 at cycle   5 NSaved=   5.
 NSaved= 5 IEnMin= 5 EnMin= -402.852512279783     IErMin= 5 ErrMin= 1.26D-03
 ErrMax= 1.26D-03  0.00D+00 EMaxC= 1.00D-01 BMatC= 3.10D-04 BMatP= 1.49D-03
 IDIUse=3 WtCom= 9.87D-01 WtEn= 1.26D-02
 Coeff-Com: -0.170D-01 0.321D-01-0.117D+00 0.166D+00 0.936D+00
 Coeff-En:   0.000D+00 0.000D+00 0.000D+00 0.000D+00 0.100D+01
 Coeff:     -0.168D-01 0.317D-01-0.115D+00 0.164D+00 0.936D+00
 Gap=     0.386 Goal=   None    Shift=    0.000
 RMSDP=2.47D-04 MaxDP=4.90D-03 DE=-2.75D-03 OVMax= 2.08D-02

 Cycle   6  Pass 0  IDiag  1:
 RMSU=  1.25D-04    CP:  9.29D-01  1.15D+00  1.34D+00  1.24D+00  1.25D+00
 E= -402.853257059664     Delta-E=       -0.000744779881 Rises=F Damp=F
 DIIS: error= 3.98D-04 at cycle   6 NSaved=   6.
 NSaved= 6 IEnMin= 6 EnMin= -402.853257059664     IErMin= 6 ErrMin= 3.98D-04
 ErrMax= 3.98D-04  0.00D+00 EMaxC= 1.00D-01 BMatC= 1.78D-05 BMatP= 3.10D-04
 IDIUse=3 WtCom= 9.96D-01 WtEn= 3.98D-03
 Coeff-Com: -0.460D-02 0.792D-02-0.441D-01-0.430D-01 0.140D+00 0.944D+00
 Coeff-En:   0.000D+00 0.000D+00 0.000D+00 0.000D+00 0.000D+00 0.100D+01
 Coeff:     -0.458D-02 0.789D-02-0.439D-01-0.428D-01 0.139D+00 0.944D+00
 Gap=     0.386 Goal=   None    Shift=    0.000
 RMSDP=8.97D-05 MaxDP=1.95D-03 DE=-7.45D-04 OVMax= 7.35D-03

 Cycle   7  Pass 0  IDiag  1:
 RMSU=  3.16D-05    CP:  9.29D-01  1.16D+00  1.35D+00  1.29D+00  1.40D+00
                    CP:  1.17D+00
 E= -402.853326889517     Delta-E=       -0.000069829852 Rises=F Damp=F
 DIIS: error= 9.08D-05 at cycle   7 NSaved=   7.
 NSaved= 7 IEnMin= 7 EnMin= -402.853326889517     IErMin= 7 ErrMin= 9.08D-05
 ErrMax= 9.08D-05  0.00D+00 EMaxC= 1.00D-01 BMatC= 3.16D-06 BMatP= 1.78D-05
 IDIUse=1 WtCom= 1.00D+00 WtEn= 0.00D+00
 Coeff-Com: -0.394D-03 0.441D-03-0.224D-02-0.354D-01-0.554D-01 0.335D+00
 Coeff-Com:  0.758D+00
 Coeff:     -0.394D-03 0.441D-03-0.224D-02-0.354D-01-0.554D-01 0.335D+00
 Coeff:      0.758D+00
 Gap=     0.385 Goal=   None    Shift=    0.000
 RMSDP=2.47D-05 MaxDP=4.30D-04 DE=-6.98D-05 OVMax= 1.92D-03

 Cycle   8  Pass 0  IDiag  1:
 RMSU=  8.96D-06    CP:  9.28D-01  1.16D+00  1.35D+00  1.29D+00  1.43D+00
                    CP:  1.28D+00  9.47D-01
 E= -402.853332717202     Delta-E=       -0.000005827685 Rises=F Damp=F
 DIIS: error= 1.61D-05 at cycle   8 NSaved=   8.
 NSaved= 8 IEnMin= 8 EnMin= -402.853332717202     IErMin= 8 ErrMin= 1.61D-05
 ErrMax= 1.61D-05  0.00D+00 EMaxC= 1.00D-01 BMatC= 1.53D-07 BMatP= 3.16D-06
 IDIUse=1 WtCom= 1.00D+00 WtEn= 0.00D+00
 Coeff-Com:  0.107D-03-0.276D-03 0.349D-02-0.431D-02-0.226D-01-0.117D-01
 Coeff-Com:  0.171D+00 0.864D+00
 Coeff:      0.107D-03-0.276D-03 0.349D-02-0.431D-02-0.226D-01-0.117D-01
 Coeff:      0.171D+00 0.864D+00
 Gap=     0.385 Goal=   None    Shift=    0.000
 RMSDP=5.59D-06 MaxDP=7.43D-05 DE=-5.83D-06 OVMax= 3.37D-04

 Initial convergence to 1.0D-05 achieved.  Increase integral accuracy.
 Cycle   9  Pass 1  IDiag  1:
 E= -402.853361060008     Delta-E=       -0.000028342806 Rises=F Damp=F
 DIIS: error= 1.30D-05 at cycle   1 NSaved=   1.
 NSaved= 1 IEnMin= 1 EnMin= -402.853361060008     IErMin= 1 ErrMin= 1.30D-05
 ErrMax= 1.30D-05  0.00D+00 EMaxC= 1.00D-01 BMatC= 1.33D-07 BMatP= 1.33D-07
 IDIUse=1 WtCom= 1.00D+00 WtEn= 0.00D+00
 Coeff-Com:  0.100D+01
 Coeff:      0.100D+01
 Gap=     0.385 Goal=   None    Shift=    0.000
 RMSDP=5.59D-06 MaxDP=7.43D-05 DE=-2.83D-05 OVMax= 5.95D-05

 Cycle  10  Pass 1  IDiag  1:
 RMSU=  4.81D-06    CP:  1.00D+00
 E= -402.853361181985     Delta-E=       -0.000000121977 Rises=F Damp=F
 DIIS: error= 7.22D-06 at cycle   2 NSaved=   2.
 NSaved= 2 IEnMin= 2 EnMin= -402.853361181985     IErMin= 2 ErrMin= 7.22D-06
 ErrMax= 7.22D-06  0.00D+00 EMaxC= 1.00D-01 BMatC= 1.58D-08 BMatP= 1.33D-07
 IDIUse=1 WtCom= 1.00D+00 WtEn= 0.00D+00
 Coeff-Com:  0.109D+00 0.891D+00
 Coeff:      0.109D+00 0.891D+00
 Gap=     0.385 Goal=   None    Shift=    0.000
 RMSDP=1.34D-06 MaxDP=3.80D-05 DE=-1.22D-07 OVMax= 4.30D-05

 Cycle  11  Pass 1  IDiag  1:
 RMSU=  1.33D-06    CP:  1.00D+00  1.03D+00
 E= -402.853361188079     Delta-E=       -0.000000006094 Rises=F Damp=F
 DIIS: error= 6.00D-06 at cycle   3 NSaved=   3.
 NSaved= 3 IEnMin= 3 EnMin= -402.853361188079     IErMin= 3 ErrMin= 6.00D-06
 ErrMax= 6.00D-06  0.00D+00 EMaxC= 1.00D-01 BMatC= 1.09D-08 BMatP= 1.58D-08
 IDIUse=1 WtCom= 1.00D+00 WtEn= 0.00D+00
 Coeff-Com: -0.549D-01 0.460D+00 0.595D+00
 Coeff:     -0.549D-01 0.460D+00 0.595D+00
 Gap=     0.385 Goal=   None    Shift=    0.000
 RMSDP=6.01D-07 MaxDP=1.85D-05 DE=-6.09D-09 OVMax= 1.95D-05

 Cycle  12  Pass 1  IDiag  1:
 RMSU=  3.30D-07    CP:  1.00D+00  1.09D+00  7.02D-01
 E= -402.853361197318     Delta-E=       -0.000000009239 Rises=F Damp=F
 DIIS: error= 4.31D-07 at cycle   4 NSaved=   4.
 NSaved= 4 IEnMin= 4 EnMin= -402.853361197318     IErMin= 4 ErrMin= 4.31D-07
 ErrMax= 4.31D-07  0.00D+00 EMaxC= 1.00D-01 BMatC= 1.42D-10 BMatP= 1.09D-08
 IDIUse=1 WtCom= 1.00D+00 WtEn= 0.00D+00
 Coeff-Com: -0.190D-01 0.104D+00 0.170D+00 0.745D+00
 Coeff:     -0.190D-01 0.104D+00 0.170D+00 0.745D+00
 Gap=     0.385 Goal=   None    Shift=    0.000
 RMSDP=1.15D-07 MaxDP=2.01D-06 DE=-9.24D-09 OVMax= 2.68D-06

 Cycle  13  Pass 1  IDiag  1:
 RMSU=  9.79D-08    CP:  1.00D+00  1.09D+00  7.29D-01  1.13D+00
 E= -402.853361197466     Delta-E=       -0.000000000148 Rises=F Damp=F
 DIIS: error= 2.26D-07 at cycle   5 NSaved=   5.
 NSaved= 5 IEnMin= 5 EnMin= -402.853361197466     IErMin= 5 ErrMin= 2.26D-07
 ErrMax= 2.26D-07  0.00D+00 EMaxC= 1.00D-01 BMatC= 2.04D-11 BMatP= 1.42D-10
 IDIUse=1 WtCom= 1.00D+00 WtEn= 0.00D+00
 Coeff-Com:  0.297D-02-0.422D-01-0.402D-01 0.224D+00 0.855D+00
 Coeff:      0.297D-02-0.422D-01-0.402D-01 0.224D+00 0.855D+00
 Gap=     0.385 Goal=   None    Shift=    0.000
 RMSDP=5.71D-08 MaxDP=1.01D-06 DE=-1.48D-10 OVMax= 2.56D-06

 Cycle  14  Pass 1  IDiag  1:
 RMSU=  3.35D-08    CP:  1.00D+00  1.10D+00  7.40D-01  1.26D+00  9.63D-01
 E= -402.853361197510     Delta-E=       -0.000000000044 Rises=F Damp=F
 DIIS: error= 6.18D-08 at cycle   6 NSaved=   6.
 NSaved= 6 IEnMin= 6 EnMin= -402.853361197510     IErMin= 6 ErrMin= 6.18D-08
 ErrMax= 6.18D-08  0.00D+00 EMaxC= 1.00D-01 BMatC= 2.18D-12 BMatP= 2.04D-11
 IDIUse=1 WtCom= 1.00D+00 WtEn= 0.00D+00
 Coeff-Com:  0.228D-02-0.209D-01-0.244D-01-0.127D-02 0.276D+00 0.769D+00
 Coeff:      0.228D-02-0.209D-01-0.244D-01-0.127D-02 0.276D+00 0.769D+00
 Gap=     0.385 Goal=   None    Shift=    0.000
 RMSDP=1.87D-08 MaxDP=3.25D-07 DE=-4.41D-11 OVMax= 5.46D-07

 Cycle  15  Pass 1  IDiag  1:
 RMSU=  1.04D-08    CP:  1.00D+00  1.10D+00  7.44D-01  1.29D+00  1.05D+00
                    CP:  9.96D-01
 E= -402.853361197510     Delta-E=        0.000000000000 Rises=F Damp=F
 DIIS: error= 2.66D-08 at cycle   7 NSaved=   7.
 NSaved= 7 IEnMin= 6 EnMin= -402.853361197510     IErMin= 7 ErrMin= 2.66D-08
 ErrMax= 2.66D-08  0.00D+00 EMaxC= 1.00D-01 BMatC= 2.73D-13 BMatP= 2.18D-12
 IDIUse=1 WtCom= 1.00D+00 WtEn= 0.00D+00
 Coeff-Com:  0.515D-03-0.279D-02-0.398D-02-0.289D-01 0.118D-01 0.283D+00
 Coeff-Com:  0.740D+00
 Coeff:      0.515D-03-0.279D-02-0.398D-02-0.289D-01 0.118D-01 0.283D+00
 Coeff:      0.740D+00
 Gap=     0.385 Goal=   None    Shift=    0.000
 RMSDP=5.38D-09 MaxDP=1.25D-07 DE= 2.27D-13 OVMax= 2.71D-07

 SCF Done:  E(RwB97XD) =  -402.853361198     A.U. after   15 cycles
            NFock= 15  Conv=0.54D-08     -V/T= 2.0100
 KE= 3.988465879691D+02 PE=-1.876131587931D+03 EE= 6.043670071909D+02
 Leave Link  502 at Wed Sep 20 15:19:08 2023, MaxMem=  8178892800 cpu:             144.7 elap:               9.6
 (Enter /home/gridsan/groups/RMG/Software/gaussian/g16/l508.exe)
 QCSCF skips out because SCF is already converged.
 Leave Link  508 at Wed Sep 20 15:19:08 2023, MaxMem=  8178892800 cpu:               0.0 elap:               0.0
 (Enter /home/gridsan/groups/RMG/Software/gaussian/g16/l801.exe)
 DoSCS=F DFT=T ScalE2(SS,OS)=  1.000000  1.000000
 Range of M.O.s used for correlation:     1   181
 NBasis=   181 NAE=    34 NBE=    34 NFC=     0 NFV=     0
 NROrb=    181 NOA=    34 NOB=    34 NVA=   147 NVB=   147
 Leave Link  801 at Wed Sep 20 15:19:08 2023, MaxMem=  8178892800 cpu:               0.1 elap:               0.0
 (Enter /home/gridsan/groups/RMG/Software/gaussian/g16/l1101.exe)
 Using compressed storage, NAtomX=    20.
 Will process     21 centers per pass.
   1 Symmetry operations used in ECPInt.
 ECPInt:  NShTT=    3828 NPrTT=   13516 LenC2=    3807 LenP2D=   10911.
 LDataN:  DoStor=T MaxTD1= 5 Len=  102
 R6Disp: Adding Grimme-D2 dispersion energy 1st derivatives to the gradient.
 Leave Link 1101 at Wed Sep 20 15:19:08 2023, MaxMem=  8178892800 cpu:               1.5 elap:               0.2
 (Enter /home/gridsan/groups/RMG/Software/gaussian/g16/l1102.exe)
 Symmetrizing basis deriv contribution to polar:
 IMax=3 JMax=2 DiffMx= 0.00D+00
 Leave Link 1102 at Wed Sep 20 15:19:08 2023, MaxMem=  8178892800 cpu:               0.1 elap:               0.0
 (Enter /home/gridsan/groups/RMG/Software/gaussian/g16/l1110.exe)
 Forming Gx(P) for the SCF density, NAtomX=    20.
 Integral derivatives from FoFJK, PRISM(SPDF).
 Do as many integral derivatives as possible in FoFJK.
 G2DrvN: MDV=    8178890604.
 G2DrvN: will do    21 centers at a time, making    1 passes.
 Calling FoFCou, ICntrl=  3107 FMM=F I1Cent=   0 AccDes= 0.00D+00.
 FoFJK:  IHMeth= 1 ICntrl=    3107 DoSepK=T KAlg= 0 I1Cent=           0 FoldK=F
 IRaf=         1 NMat=       1 IRICut=       1 DoRegI=T DoRafI=F ISym2E= 0 IDoP0=0 IntGTp=1.
 FoFCou: FMM=F IPFlag=           0 FMFlag=      100000 FMFlg1=           0
         NFxFlg=           0 DoJE=F BraDBF=F KetDBF=F FulRan=T
         wScrn=  0.000000 ICntrl=      3507 IOpCl=  0 I1Cent=           0 NGrid=           0
         NMat0=    1 NMatS0=      1 NMatT0=    0 NMatD0=    1 NMtDS0=    0 NMtDT0=    0
 Symmetry not used in FoFCou.
 End of G2Drv F.D. properties file   721 does not exist.
 End of G2Drv F.D. properties file   722 does not exist.
 End of G2Drv F.D. properties file   788 does not exist.
 Leave Link 1110 at Wed Sep 20 15:19:21 2023, MaxMem=  8178892800 cpu:             200.4 elap:              12.6
 (Enter /home/gridsan/groups/RMG/Software/gaussian/g16/l1002.exe)
 Minotr:  Closed shell wavefunction.
          IDoAtm=11111111111111111111
          Direct CPHF calculation.
          Differentiating once with respect to nuclear coordinates.
          Requested convergence is 1.0D-08 RMS, and 1.0D-07 maximum.
          Secondary convergence is 1.0D-12 RMS, and 1.0D-12 maximum.
          NewPWx=T KeepS1=F KeepF1=F KeepIn=T MapXYZ=F SortEE=F KeepMc=T.
         5954 words used for storage of precomputed grid.
 Keep R1 ints in memory in canonical form, NReq=290585206.
 FoFCou: FMM=F IPFlag=           0 FMFlag=           0 FMFlg1=           0
         NFxFlg=           0 DoJE=F BraDBF=F KetDBF=F FulRan=T
         wScrn=  0.000000 ICntrl=       600 IOpCl=  0 I1Cent=           0 NGrid=           0
         NMat0=    1 NMatS0=  16471 NMatT0=    0 NMatD0=    1 NMtDS0=    0 NMtDT0=    0
 Symmetry not used in FoFCou.
 Two-electron integral symmetry not used.
          MDV=    8178892800 using IRadAn=       1.
          Solving linear equations simultaneously, MaxMat=       0.
          There are    63 degrees of freedom in the 1st order CPHF.  IDoFFX=6 NUNeed=     0.
     57 vectors produced by pass  0 Test12= 7.93D-15 1.59D-09 XBig12= 6.94D-02 5.20D-02.
 AX will form    57 AO Fock derivatives at one time.
     57 vectors produced by pass  1 Test12= 7.93D-15 1.59D-09 XBig12= 6.58D-03 1.67D-02.
     57 vectors produced by pass  2 Test12= 7.93D-15 1.59D-09 XBig12= 1.82D-04 2.45D-03.
     57 vectors produced by pass  3 Test12= 7.93D-15 1.59D-09 XBig12= 1.63D-06 1.57D-04.
     57 vectors produced by pass  4 Test12= 7.93D-15 1.59D-09 XBig12= 1.27D-08 1.19D-05.
     57 vectors produced by pass  5 Test12= 7.93D-15 1.59D-09 XBig12= 6.91D-11 1.00D-06.
     41 vectors produced by pass  6 Test12= 7.93D-15 1.59D-09 XBig12= 3.56D-13 9.41D-08.
      9 vectors produced by pass  7 Test12= 7.93D-15 1.59D-09 XBig12= 1.52D-15 4.60D-09.
 InvSVY:  IOpt=1 It=  1 EMax= 1.94D-16
 Solved reduced A of dimension   392 with    63 vectors.
 End of Minotr F.D. properties file   721 does not exist.
 End of Minotr F.D. properties file   722 does not exist.
 End of Minotr F.D. properties file   788 does not exist.
 Leave Link 1002 at Wed Sep 20 15:19:34 2023, MaxMem=  8178892800 cpu:             198.1 elap:              12.9
 (Enter /home/gridsan/groups/RMG/Software/gaussian/g16/l601.exe)
 Copying SCF densities to generalized density rwf, IOpCl= 0 IROHF=0.

 **********************************************************************

            Population analysis using the SCF Density.

 **********************************************************************

 Orbital symmetries:
       Occupied  (A) (A) (A) (A) (A) (A) (A) (A) (A) (A) (A) (A)
                 (A) (A) (A) (A) (A) (A) (A) (A) (A) (A) (A) (A)
                 (A) (A) (A) (A) (A) (A) (A) (A) (A) (A)
       Virtual   (A) (A) (A) (A) (A) (A) (A) (A) (A) (A) (A) (A)
                 (A) (A) (A) (A) (A) (A) (A) (A) (A) (A) (A) (A)
                 (A) (A) (A) (A) (A) (A) (A) (A) (A) (A) (A) (A)
                 (A) (A) (A) (A) (A) (A) (A) (A) (A) (A) (A) (A)
                 (A) (A) (A) (A) (A) (A) (A) (A) (A) (A) (A) (A)
                 (A) (A) (A) (A) (A) (A) (A) (A) (A) (A) (A) (A)
                 (A) (A) (A) (A) (A) (A) (A) (A) (A) (A) (A) (A)
                 (A) (A) (A) (A) (A) (A) (A) (A) (A) (A) (A) (A)
                 (A) (A) (A) (A) (A) (A) (A) (A) (A) (A) (A) (A)
                 (A) (A) (A) (A) (A) (A) (A) (A) (A) (A) (A) (A)
                 (A) (A) (A) (A) (A) (A) (A) (A) (A) (A) (A) (A)
                 (A) (A) (A) (A) (A) (A) (A) (A) (A) (A) (A) (A)
                 (A) (A) (A)
 The electronic state is 1-A.
 Alpha  occ. eigenvalues --  -19.26390 -14.41881 -10.35407 -10.35195 -10.32494
 Alpha  occ. eigenvalues --  -10.30992 -10.30789 -10.30684 -10.28566  -1.14420
 Alpha  occ. eigenvalues --   -1.05068  -0.89588  -0.85601  -0.81165  -0.72679
 Alpha  occ. eigenvalues --   -0.71145  -0.66789  -0.64039  -0.61970  -0.60339
 Alpha  occ. eigenvalues --   -0.55145  -0.53614  -0.51733  -0.51461  -0.48883
 Alpha  occ. eigenvalues --   -0.47961  -0.46540  -0.43947  -0.42589  -0.41148
 Alpha  occ. eigenvalues --   -0.38981  -0.37726  -0.32707  -0.30805
 Alpha virt. eigenvalues --    0.07714   0.13802   0.15789   0.16854   0.18081
 Alpha virt. eigenvalues --    0.18299   0.20056   0.20211   0.21455   0.21467
 Alpha virt. eigenvalues --    0.23442   0.23921   0.24747   0.26944   0.27760
 Alpha virt. eigenvalues --    0.31012   0.31730   0.33400   0.36002   0.38602
 Alpha virt. eigenvalues --    0.39903   0.46424   0.49110   0.50606   0.51756
 Alpha virt. eigenvalues --    0.54639   0.55056   0.56989   0.58185   0.60688
 Alpha virt. eigenvalues --    0.61539   0.63485   0.64812   0.65499   0.67316
 Alpha virt. eigenvalues --    0.68346   0.69878   0.71302   0.71820   0.72729
 Alpha virt. eigenvalues --    0.73055   0.73879   0.75261   0.75345   0.76867
 Alpha virt. eigenvalues --    0.77139   0.78487   0.79224   0.80010   0.81551
 Alpha virt. eigenvalues --    0.81770   0.84619   0.85738   0.88473   0.90724
 Alpha virt. eigenvalues --    0.91941   0.93041   0.97774   1.00474   1.01280
 Alpha virt. eigenvalues --    1.10860   1.13325   1.18429   1.19031   1.19997
 Alpha virt. eigenvalues --    1.22774   1.30566   1.34087   1.38475   1.44122
 Alpha virt. eigenvalues --    1.48336   1.50021   1.51788   1.58147   1.60851
 Alpha virt. eigenvalues --    1.62686   1.65084   1.66573   1.69634   1.70179
 Alpha virt. eigenvalues --    1.73750   1.75758   1.76314   1.78877   1.80833
 Alpha virt. eigenvalues --    1.82025   1.84356   1.84866   1.85622   1.86521
 Alpha virt. eigenvalues --    1.88769   1.90859   1.92471   1.93234   1.93773
 Alpha virt. eigenvalues --    1.94794   1.96670   2.00062   2.00665   2.03816
 Alpha virt. eigenvalues --    2.04553   2.06842   2.08052   2.11175   2.14887
 Alpha virt. eigenvalues --    2.17392   2.18898   2.21164   2.23246   2.28171
 Alpha virt. eigenvalues --    2.30674   2.32918   2.35295   2.37577   2.40680
 Alpha virt. eigenvalues --    2.43361   2.47145   2.48393   2.52715   2.58285
 Alpha virt. eigenvalues --    2.59216   2.60781   2.63834   2.67100   2.71981
 Alpha virt. eigenvalues --    2.77329   2.82215   2.82741   2.87155   2.88683
 Alpha virt. eigenvalues --    2.90078   2.91295   2.97033   3.02587   3.05115
 Alpha virt. eigenvalues --    3.05880   3.07875   3.08172   3.13042   3.14593
 Alpha virt. eigenvalues --    3.19542   3.22384   3.25911   3.37294   3.43987
 Alpha virt. eigenvalues --    3.46700   3.61141
          Condensed to atoms (all electrons):
               1          2          3          4          5          6
     1  C    4.547710   0.340728  -0.044645  -0.000272   0.000108  -0.000036
     2  C    0.340728   5.557930   0.234417  -0.087890  -0.005457   0.003028
     3  C   -0.044645   0.234417   4.779426   0.329119  -0.003113  -0.117642
     4  C   -0.000272  -0.087890   0.329119   4.909747   0.605795  -0.031877
     5  C    0.000108  -0.005457  -0.003113   0.605795   4.913528   0.347500
     6  C   -0.000036   0.003028  -0.117642  -0.031877   0.347500   4.479239
     7  O    0.003333  -0.079560   0.321131  -0.045217  -0.047040   0.317849
     8  C   -0.027255   0.170253  -0.018279  -0.006986   0.001482   0.001792
     9  N   -0.055601   0.234911  -0.033945   0.005997   0.000360   0.000203
    10  H    0.385918  -0.021860  -0.003474  -0.001530  -0.000066  -0.000000
    11  H    0.366902   0.006890   0.006896  -0.000323  -0.000014   0.000006
    12  H    0.385157  -0.017116  -0.003736   0.002492   0.000648  -0.000022
    13  H   -0.001333  -0.059206   0.373100  -0.020260  -0.005448   0.007293
    14  H    0.001860  -0.000730  -0.052157   0.434638  -0.049256   0.011947
    15  H    0.000008  -0.000009   0.010572  -0.046479   0.425645  -0.044784
    16  H   -0.000061   0.004070   0.009573  -0.007072  -0.018204   0.374668
    17  H    0.000032  -0.001699   0.002349  -0.002191  -0.022695   0.383166
    18  H    0.001449   0.003536   0.000964   0.000843  -0.000085   0.000024
    19  H    0.001261  -0.005145  -0.003390   0.000483   0.000441   0.000356
    20  H    0.005015  -0.010346  -0.023664   0.001791   0.000038   0.000011
               7          8          9         10         11         12
     1  C    0.003333  -0.027255  -0.055601   0.385918   0.366902   0.385157
     2  C   -0.079560   0.170253   0.234911  -0.021860   0.006890  -0.017116
     3  C    0.321131  -0.018279  -0.033945  -0.003474   0.006896  -0.003736
     4  C   -0.045217  -0.006986   0.005997  -0.001530  -0.000323   0.002492
     5  C   -0.047040   0.001482   0.000360  -0.000066  -0.000014   0.000648
     6  C    0.317849   0.001792   0.000203  -0.000000   0.000006  -0.000022
     7  O    8.011558   0.017138  -0.009068   0.000081  -0.000119  -0.000047
     8  C    0.017138   4.784100   0.262353   0.007835  -0.004364  -0.008938
     9  N   -0.009068   0.262353   6.531746  -0.003272   0.004747   0.006341
    10  H    0.000081   0.007835  -0.003272   0.640146  -0.016360  -0.023869
    11  H   -0.000119  -0.004364   0.004747  -0.016360   0.618050  -0.015971
    12  H   -0.000047  -0.008938   0.006341  -0.023869  -0.015971   0.650021
    13  H   -0.025542   0.011656  -0.005922   0.007468  -0.000127  -0.000533
    14  H    0.003428  -0.000245  -0.000028   0.000159  -0.000124   0.001331
    15  H    0.003202  -0.000167   0.000010  -0.000000  -0.000001   0.000002
    16  H   -0.033297  -0.001854   0.000337  -0.000003   0.000002  -0.000003
    17  H   -0.028605   0.000296  -0.000058   0.000003  -0.000001   0.000000
    18  H    0.000260   0.372295  -0.029759   0.000055  -0.000596  -0.000412
    19  H    0.004994   0.384489  -0.015893  -0.000258   0.000169   0.000821
    20  H    0.021287  -0.011322   0.339147   0.000601  -0.000626  -0.000439
              13         14         15         16         17         18
     1  C   -0.001333   0.001860   0.000008  -0.000061   0.000032   0.001449
     2  C   -0.059206  -0.000730  -0.000009   0.004070  -0.001699   0.003536
     3  C    0.373100  -0.052157   0.010572   0.009573   0.002349   0.000964
     4  C   -0.020260   0.434638  -0.046479  -0.007072  -0.002191   0.000843
     5  C   -0.005448  -0.049256   0.425645  -0.018204  -0.022695  -0.000085
     6  C    0.007293   0.011947  -0.044784   0.374668   0.383166   0.000024
     7  O   -0.025542   0.003428   0.003202  -0.033297  -0.028605   0.000260
     8  C    0.011656  -0.000245  -0.000167  -0.001854   0.000296   0.372295
     9  N   -0.005922  -0.000028   0.000010   0.000337  -0.000058  -0.029759
    10  H    0.007468   0.000159  -0.000000  -0.000003   0.000003   0.000055
    11  H   -0.000127  -0.000124  -0.000001   0.000002  -0.000001  -0.000596
    12  H   -0.000533   0.001331   0.000002  -0.000003   0.000000  -0.000412
    13  H    0.684200   0.000601  -0.000307  -0.001316   0.002066  -0.000306
    14  H    0.000601   0.626154  -0.007111  -0.000336  -0.000159   0.000055
    15  H   -0.000307  -0.007111   0.625442  -0.000078   0.000672   0.000010
    16  H   -0.001316  -0.000336  -0.000078   0.683789  -0.045420  -0.000027
    17  H    0.002066  -0.000159   0.000672  -0.045420   0.670925  -0.000001
    18  H   -0.000306   0.000055   0.000010  -0.000027  -0.000001   0.652730
    19  H    0.000720  -0.000069   0.000032  -0.001167   0.000374  -0.038909
    20  H    0.001470  -0.000031  -0.000009  -0.000575   0.000099   0.003835
              19         20
     1  C    0.001261   0.005015
     2  C   -0.005145  -0.010346
     3  C   -0.003390  -0.023664
     4  C    0.000483   0.001791
     5  C    0.000441   0.000038
     6  C    0.000356   0.000011
     7  O    0.004994   0.021287
     8  C    0.384489  -0.011322
     9  N   -0.015893   0.339147
    10  H   -0.000258   0.000601
    11  H    0.000169  -0.000626
    12  H    0.000821  -0.000439
    13  H    0.000720   0.001470
    14  H   -0.000069  -0.000031
    15  H    0.000032  -0.000009
    16  H   -0.001167  -0.000575
    17  H    0.000374   0.000099
    18  H   -0.038909   0.003835
    19  H    0.645237  -0.011615
    20  H   -0.011615   0.556184
 Mulliken charges:
               1
     1  C    0.089721
     2  C   -0.266747
     3  C    0.236496
     4  C   -0.040809
     5  C   -0.144168
     6  C    0.267278
     7  O   -0.435767
     8  C    0.065718
     9  N   -0.232606
    10  H    0.028426
    11  H    0.034964
    12  H    0.024270
    13  H    0.031725
    14  H    0.030073
    15  H    0.033350
    16  H    0.036973
    17  H    0.040845
    18  H    0.034038
    19  H    0.037070
    20  H    0.129150
 Sum of Mulliken charges =  -0.00000
 Mulliken charges with hydrogens summed into heavy atoms:
               1
     1  C    0.177381
     2  C   -0.266747
     3  C    0.268221
     4  C   -0.010736
     5  C   -0.110819
     6  C    0.345096
     7  O   -0.435767
     8  C    0.136826
     9  N   -0.103456
 APT charges:
               1
     1  C   -0.663194
     2  C   -0.529577
     3  C   -0.226499
     4  C   -0.629416
     5  C   -0.491142
     6  C   -0.488331
     7  O   -0.351195
     8  C   -0.477774
     9  N   -0.266934
    10  H    0.307067
    11  H    0.467583
    12  H    0.236493
    13  H    0.335683
    14  H    0.387602
    15  H    0.624166
    16  H    0.313064
    17  H    0.517820
    18  H    0.486793
    19  H    0.166142
    20  H    0.281651
 Sum of APT charges =  -0.00000
 APT charges with hydrogens summed into heavy atoms:
               1
     1  C    0.347949
     2  C   -0.529577
     3  C    0.109184
     4  C   -0.241814
     5  C    0.133024
     6  C    0.342552
     7  O   -0.351195
     8  C    0.175161
     9  N    0.014717
 Electronic spatial extent (au):  <R**2>=           1131.6881
 Charge=             -0.0000 electrons
 Dipole moment (field-independent basis, Debye):
    X=             -2.1502    Y=              1.5609    Z=              1.0345  Tot=              2.8513
 Quadrupole moment (field-independent basis, Debye-Ang):
   XX=            -54.3841   YY=            -53.6357   ZZ=            -54.0685
   XY=              3.4891   XZ=             -0.8952   YZ=             -1.1501
 Traceless Quadrupole moment (field-independent basis, Debye-Ang):
   XX=             -0.3547   YY=              0.3937   ZZ=             -0.0391
   XY=              3.4891   XZ=             -0.8952   YZ=             -1.1501
 Octapole moment (field-independent basis, Debye-Ang**2):
  XXX=            -27.0780  YYY=             -4.1355  ZZZ=             -4.0415  XYY=             -4.5924
  XXY=              4.9351  XXZ=              7.4897  XZZ=              0.8690  YZZ=             -1.6728
  YYZ=              0.9459  XYZ=             -1.4059
 Hexadecapole moment (field-independent basis, Debye-Ang**3):
 XXXX=           -919.9919 YYYY=           -359.5732 ZZZZ=           -192.8543 XXXY=             30.0662
 XXXZ=              4.1186 YYYX=              5.1854 YYYZ=             10.7804 ZZZX=              1.2218
 ZZZY=             -1.0629 XXYY=           -234.8752 XXZZ=           -181.9018 YYZZ=            -92.7208
 XXYZ=              2.3636 YYXZ=             -5.2983 ZZXY=             -1.2735
 N-N= 4.700646315736D+02 E-N=-1.876131591715D+03  KE= 3.988465879691D+02
  Exact polarizability:       0.000       0.000       0.000       0.000       0.000       0.000
 Approx polarizability:      90.630       7.998      84.424      -6.283      -2.498      78.401
 No NMR shielding tensors so no spin-rotation constants.
 Leave Link  601 at Wed Sep 20 15:19:34 2023, MaxMem=  8178892800 cpu:               1.0 elap:               0.1
 (Enter /home/gridsan/groups/RMG/Software/gaussian/g16/l701.exe)
 SCFChk:  SCF convergence  5.38D-09 required  1.00D-08
 ... and contract with generalized density number  0.
 Compute integral second derivatives.
 R6Disp: Adding Grimme-D2 dispersion energy 2nd derivatives to the Hessian.
 Entering OneElI...
 Calculate overlap and kinetic energy integrals
    NBasis = 190  MinDer = 2  MaxDer = 2
 Requested accuracy = 0.1000D-12
 PrmmSu-InSpLW:  IPartL=    0 NPrtUS=   16 NPrtUL=    1 DoSpLW=F IThBeg=    0 IThEnd=   15 NThAct=   16.
 PrSmSu:  IncTry=   512 NBBP=           3815 NTPThr=   100 NPartT=   16 Incr=           2 LDynOK=F GPUOK=F.
 PrsmSu:  NPrtUS=  16 ThrOK=T IAlg=2 LenDen=           0 ISkipM=0 DoSpLW=F IThBeg=    0 IThEnd=   15.
 Prism:   IPart=     0 DynPar=F LinDyn=F Incr=           2.
 PRISM was handed   511068489 working-precision words and  3815 shell-pairs
 PRISM was handed   511068489 working-precision words and  3815 shell-pairs
 PRISM was handed   511068489 working-precision words and  3815 shell-pairs
 PRISM was handed   511068489 working-precision words and  3815 shell-pairs
 PRISM was handed   511068489 working-precision words and  3815 shell-pairs
 PRISM was handed   511068489 working-precision words and  3815 shell-pairs
 PRISM was handed   511068489 working-precision words and  3815 shell-pairs
 PRISM was handed   511068489 working-precision words and  3815 shell-pairs
 PRISM was handed   511068489 working-precision words and  3815 shell-pairs
 PRISM was handed   511068489 working-precision words and  3815 shell-pairs
 PRISM was handed   511068489 working-precision words and  3815 shell-pairs
 PRISM was handed   511068489 working-precision words and  3815 shell-pairs
 PRISM was handed   511068489 working-precision words and  3815 shell-pairs
 PRISM was handed   511068489 working-precision words and  3815 shell-pairs
 PRISM was handed   511068489 working-precision words and  3815 shell-pairs
 PRISM was handed   511068489 working-precision words and  3815 shell-pairs
 IPart= 13 NShTot=         226 NBatch=          25 AvBLen=         9.0
 IPart= 14 NShTot=         223 NBatch=          25 AvBLen=         8.9
 IPart= 11 NShTot=         229 NBatch=          25 AvBLen=         9.2
 IPart= 15 NShTot=         223 NBatch=          25 AvBLen=         8.9
 IPart= 12 NShTot=         229 NBatch=          25 AvBLen=         9.2
 IPart=  4 NShTot=         245 NBatch=          35 AvBLen=         7.0
 IPart= 10 NShTot=         233 NBatch=          28 AvBLen=         8.3
 IPart=  9 NShTot=         234 NBatch=          29 AvBLen=         8.1
 IPart=  7 NShTot=         237 NBatch=          31 AvBLen=         7.6
 IPart=  8 NShTot=         237 NBatch=          31 AvBLen=         7.6
 IPart=  2 NShTot=         252 NBatch=          37 AvBLen=         6.8
 IPart=  6 NShTot=         238 NBatch=          32 AvBLen=         7.4
 IPart=  3 NShTot=         248 NBatch=          35 AvBLen=         7.1
 IPart=  5 NShTot=         242 NBatch=          34 AvBLen=         7.1
 IPart=  0 NShTot=         262 NBatch=          43 AvBLen=         6.1
 IPart=  1 NShTot=         257 NBatch=          41 AvBLen=         6.3
 PrSmSu:  NxtVal=             33.
 Entering OneElI...
 Calculate potential energy integrals
    NBasis = 190  MinDer = 2  MaxDer = 2
 Requested accuracy = 0.1000D-12
 PrmmSu-InSpLW:  IPartL=    0 NPrtUS=   16 NPrtUL=    1 DoSpLW=F IThBeg=    0 IThEnd=   15 NThAct=   16.
 PrSmSu:  IncTry=   512 NBBP=          72980 NTPThr=   100 NPartT=   16 Incr=          45 LDynOK=F GPUOK=F.
 PrsmSu:  NPrtUS=  16 ThrOK=T IAlg=2 LenDen=           0 ISkipM=0 DoSpLW=F IThBeg=    0 IThEnd=   15.
 Prism:   IPart=     0 DynPar=F LinDyn=F Incr=          45.
 PRISM was handed   511084523 working-precision words and  3649 shell-pairs
 PRISM was handed   511084523 working-precision words and  3649 shell-pairs
 PRISM was handed   511084523 working-precision words and  3649 shell-pairs
 PRISM was handed   511084523 working-precision words and  3649 shell-pairs
 PRISM was handed   511084523 working-precision words and  3649 shell-pairs
 PRISM was handed   511084523 working-precision words and  3649 shell-pairs
 PRISM was handed   511084523 working-precision words and  3649 shell-pairs
 PRISM was handed   511084523 working-precision words and  3649 shell-pairs
 PRISM was handed   511084523 working-precision words and  3649 shell-pairs
 PRISM was handed   511084523 working-precision words and  3649 shell-pairs
 PRISM was handed   511084523 working-precision words and  3649 shell-pairs
 PRISM was handed   511084523 working-precision words and  3649 shell-pairs
 PRISM was handed   511084523 working-precision words and  3649 shell-pairs
 PRISM was handed   511084523 working-precision words and  3649 shell-pairs
 PRISM was handed   511084523 working-precision words and  3649 shell-pairs
 PRISM was handed   511084523 working-precision words and  3649 shell-pairs
 IPart= 12 NShTot=        4300 NBatch=         215 AvBLen=        20.0
 IPart=  8 NShTot=        4540 NBatch=         227 AvBLen=        20.0
 IPart=  7 NShTot=        4600 NBatch=         230 AvBLen=        20.0
 IPart=  4 NShTot=        4760 NBatch=         238 AvBLen=        20.0
 IPart=  0 NShTot=        4980 NBatch=         249 AvBLen=        20.0
 IPart=  1 NShTot=        4940 NBatch=         247 AvBLen=        20.0
 IPart= 14 NShTot=        4220 NBatch=         211 AvBLen=        20.0
 IPart= 13 NShTot=        4220 NBatch=         211 AvBLen=        20.0
 IPart= 15 NShTot=        4180 NBatch=         209 AvBLen=        20.0
 IPart=  9 NShTot=        4460 NBatch=         223 AvBLen=        20.0
 IPart= 11 NShTot=        4360 NBatch=         218 AvBLen=        20.0
 IPart=  6 NShTot=        4640 NBatch=         232 AvBLen=        20.0
 IPart= 10 NShTot=        4440 NBatch=         222 AvBLen=        20.0
 IPart=  3 NShTot=        4760 NBatch=         238 AvBLen=        20.0
 IPart=  2 NShTot=        4840 NBatch=         242 AvBLen=        20.0
 IPart=  5 NShTot=        4740 NBatch=         237 AvBLen=        20.0
 PrSmSu:  NxtVal=            721.
   1 Symmetry operations used in ECPInt.
 ECPInt:  NShTT=    3828 NPrTT=   13516 LenC2=    3807 LenP2D=   10911.
 LDataN:  DoStor=F MaxTD1= 6 Len=  172
 LDataN:  DoStor=T MaxTD1= 6 Len=  172
 ECPSu:  NPrtUS=  16 ThrOK=T ISkipM=0 DoSpLW=F IThBeg=    0 IThEnd=   15.
 Polarizability after L701:
                1             2             3 
      1  0.000000D+00
      2  0.000000D+00  0.000000D+00
      3  0.000000D+00  0.000000D+00  0.000000D+00
 Dipole Derivatives after L701:
                 1             2             3             4             5 
      1  -0.687598D+00 -0.263920D+00  0.101519D+00 -0.774645D+00  0.160686D-01
      2  -0.451783D-01 -0.639808D+00  0.115344D-01 -0.340504D-01 -0.621935D-01
      3  -0.214475D-01 -0.299619D-01 -0.662177D+00  0.740942D-01 -0.171405D+00
                 6             7             8             9            10 
      1  -0.173116D+00 -0.119477D+00 -0.148051D+00 -0.328677D-01 -0.765023D+00
      2  -0.192483D+00 -0.150411D+00 -0.106031D+00  0.150847D+00  0.193396D+00
      3  -0.751892D+00 -0.151043D-01  0.123359D+00 -0.453988D+00  0.276172D+00
                11            12            13            14            15 
      1  -0.141594D+00  0.359279D+00 -0.432633D+00  0.493461D+00  0.439567D+00
      2  -0.888480D+00 -0.435195D+00 -0.242906D+00 -0.692891D+00 -0.172515D+00
      3  -0.167103D+00 -0.234745D+00  0.236740D+00 -0.347582D+00 -0.347902D+00
                16            17            18            19            20 
      1  -0.719702D+00 -0.334283D+00 -0.918331D-01 -0.577061D+00  0.167554D+00
      2  -0.417949D-01 -0.315062D+00  0.133597D+00 -0.126154D+00 -0.239971D+00
      3  -0.992828D-01  0.126384D+00 -0.430230D+00  0.189169D-01  0.254007D+00
                21            22            23            24            25 
      1   0.232897D+00 -0.736786D+00  0.612480D-01 -0.133426D+00  0.540505D+00
      2   0.207610D+00 -0.521509D-01 -0.530269D+00  0.173449D-01 -0.876080D+00
      3  -0.236551D+00 -0.967967D-01  0.355794D-01 -0.166267D+00 -0.322362D+00
                26            27            28            29            30 
      1   0.117681D+00 -0.127032D+00  0.601072D-01  0.324260D+00 -0.107574D+01
      2  -0.740890D+00  0.120465D+00  0.418098D-01  0.238913D+00 -0.726904D+00
      3   0.132582D+00 -0.600417D+00 -0.340240D-01 -0.172905D+00  0.622180D+00
                31            32            33            34            35 
      1   0.151828D+01 -0.535661D+00  0.495190D+00 -0.241959D+00  0.699537D+00
      2   0.399221D+00 -0.158541D+00  0.129398D+00 -0.274688D+00  0.804973D+00
      3   0.522512D-01 -0.242665D-01  0.430112D-01 -0.593153D-01  0.160352D+00
                36            37            38            39            40 
      1   0.530456D+00  0.750123D-01 -0.161007D-01  0.467285D-01 -0.970905D-01
      2   0.590061D+00  0.282615D-01  0.184157D+00 -0.306367D+00  0.406773D+00
      3   0.146466D+00 -0.523773D-01 -0.262672D+00  0.747878D+00  0.562862D-01
                41            42            43            44            45 
      1  -0.365821D+00 -0.117566D+00  0.123391D+01 -0.553340D+00 -0.960227D+00
      2   0.119424D+01  0.310894D+00 -0.428857D+00  0.249895D+00  0.359214D+00
      3   0.234784D+00  0.656562D-01 -0.495250D+00  0.238411D+00  0.388693D+00
                46            47            48            49            50 
      1   0.131589D+00  0.749576D+00 -0.796321D+00  0.117578D+01  0.748310D-01
      2   0.101543D-01  0.526957D+00 -0.486766D+00  0.305511D+00  0.859630D-01
      3   0.238453D-02 -0.215373D+00  0.280645D+00  0.220571D+00  0.948345D-02
                51            52            53            54            55 
      1   0.923735D+00  0.847899D+00  0.139539D+00  0.612910D+00 -0.119466D+00
      2   0.244306D+00 -0.286637D+00 -0.304879D-01 -0.216087D+00  0.527780D+00
      3   0.291718D+00  0.674258D+00  0.145775D+00  0.642967D+00 -0.620068D+00
                56            57            58            59            60 
      1  -0.686698D-01  0.797118D-01 -0.311638D+00 -0.416314D+00 -0.313869D+00
      2   0.284156D+00 -0.214057D+00  0.645999D+00  0.835370D+00  0.475101D+00
      3  -0.295127D+00  0.333735D+00  0.204353D+00  0.225680D+00  0.321220D+00
 Hessian after L701:
                1             2             3             4             5 
      1  0.155503D+02
      2 -0.265434D+01  0.151900D+02
      3  0.164649D+00  0.306401D+00  0.181181D+02
      4 -0.434052D+01  0.309250D+01 -0.286844D+00  0.166269D+02
      5  0.308434D+01 -0.324267D+01 -0.262177D+00  0.107503D+01  0.144365D+02
      6 -0.231422D+00 -0.199856D+00 -0.676414D+01 -0.221864D+01  0.306568D+01
      7  0.173891D+00 -0.101845D+00  0.935574D-01 -0.551132D+00 -0.602518D+00
      8 -0.925759D-01 -0.130614D+00  0.107275D-01 -0.723213D+00 -0.661623D+01
      9  0.533441D-01 -0.828488D-02  0.145156D-01  0.250237D+01 -0.293954D+00
     10  0.238852D+00 -0.465794D-01 -0.173369D-01  0.766227D-01 -0.122689D-01
     11  0.174444D-01 -0.183430D+00 -0.135275D-01  0.356843D-01  0.276804D+00
     12 -0.165069D-01 -0.474388D-02 -0.168759D+00  0.224240D+00 -0.143563D+00
     13  0.142007D+00  0.165816D-01 -0.333989D-01  0.191121D+00 -0.684732D-01
     14  0.382396D-01 -0.696771D-01 -0.108867D-01 -0.631133D-01 -0.874193D-01
     15 -0.374445D-01 -0.602813D-02 -0.626427D-01  0.610551D-01 -0.105626D-01
     16  0.640944D-01  0.476730D-01 -0.847676D-03  0.274590D+00  0.106290D+00
     17  0.428957D-01 -0.351358D-01 -0.133016D-02  0.864976D-01 -0.122894D+00
     18 -0.683579D-02 -0.212154D-02 -0.559205D-01 -0.677234D-02 -0.378525D-02
     19  0.225143D+00  0.275152D+00  0.684359D-01  0.257136D+00 -0.628420D+00
     20  0.283394D+00  0.294016D-01  0.523547D-01 -0.681238D+00 -0.516712D+00
     21  0.640259D-01  0.449937D-01 -0.156069D+00  0.320304D+00 -0.187885D-01
     22 -0.870557D-01  0.173790D+00 -0.855946D-01 -0.635839D+01 -0.824711D-01
     23  0.198613D+00  0.326275D+00 -0.197888D+00 -0.722014D-01 -0.404252D+01
     24 -0.696163D-01 -0.144742D+00 -0.116507D+00  0.354715D+00 -0.320132D+01
     25  0.301794D-01  0.410335D+00 -0.940169D-02 -0.648374D+01 -0.317461D+01
     26  0.361544D+00 -0.491455D-01 -0.721403D-01 -0.284561D+01 -0.106461D+00
     27 -0.182551D-01 -0.170145D+00 -0.780906D-01 -0.622069D+00  0.573556D+00
     28 -0.473978D+01  0.634314D-01 -0.257110D+00 -0.103713D-02 -0.355727D-01
     29 -0.150028D-02 -0.452589D+01 -0.800745D+00  0.197831D-02  0.147149D-01
     30 -0.467504D-02 -0.614085D+00 -0.236952D+01 -0.584923D-01 -0.686505D-01
     31 -0.268669D+01 -0.977124D+00  0.692706D+00  0.160451D+00  0.187347D+00
     32 -0.661432D+00 -0.431710D+01 -0.227661D+00  0.507616D-01 -0.430057D-01
     33  0.592889D+00 -0.289230D+00 -0.440790D+01  0.409427D-01  0.136169D-01
     34 -0.460195D+01 -0.413294D+00 -0.323654D+00  0.347785D-01 -0.317885D-01
     35 -0.687894D+00 -0.318169D+01  0.123280D+01  0.904377D-01  0.493412D-02
     36 -0.481814D+00  0.110132D+01 -0.389951D+01  0.373100D-01  0.649867D-01
     37 -0.169343D-01  0.116085D-01  0.295898D-01  0.753608D-01  0.803863D-01
     38 -0.924119D-03 -0.315762D-01  0.782049D-03  0.764177D-01  0.212832D+00
     39  0.688741D-01  0.167483D-01  0.256856D-01 -0.262082D+00  0.104071D+00
     40  0.400647D-01 -0.342424D-01 -0.229408D-01 -0.228207D-01 -0.311310D-01
     41 -0.866310D-01  0.117560D-02  0.203183D-01 -0.653060D-01  0.773649D-01
     42 -0.361036D-01  0.156029D-01 -0.303384D-01 -0.362830D-02  0.122096D-01
     43  0.235839D-01 -0.238405D-02 -0.771547D-02  0.283628D-01 -0.920703D-02
     44 -0.537564D-02 -0.535780D-02  0.126721D-02 -0.127789D-01 -0.569490D-02
     45 -0.145869D-01  0.173055D-02 -0.312256D-02 -0.177777D-01  0.263528D-02
     46  0.411748D-02  0.518941D-02 -0.182487D-02  0.935332D-01  0.667333D-01
     47  0.147967D-01  0.143433D-02 -0.230370D-02  0.855731D-01  0.138450D-01
     48 -0.116756D-01 -0.540446D-02 -0.440830D-02 -0.507291D-01 -0.273717D-01
     49  0.185342D-01  0.783527D-02  0.302601D-02 -0.267226D-01 -0.715858D-02
     50  0.589039D-02 -0.322745D-02  0.601067D-03 -0.106117D-01 -0.446326D-02
     51  0.101448D-01  0.227998D-02 -0.317067D-02  0.633880D-02  0.384560D-02
     52 -0.388825D-01 -0.181520D-01  0.188278D-01 -0.598535D-01  0.158444D-01
     53  0.101572D-01  0.253977D-01 -0.354966D-01  0.668322D-01 -0.144469D+00
     54 -0.112247D-01 -0.618549D-01 -0.777503D-02  0.718392D-01  0.631677D-02
     55  0.165377D-01  0.567779D-01 -0.409354D-01  0.533688D-01  0.564531D-01
     56  0.458601D-01  0.303698D-01 -0.370082D-01 -0.868580D-02 -0.106893D+00
     57 -0.365487D-01 -0.487495D-01  0.535587D-02 -0.724577D-01 -0.137534D-01
     58 -0.154763D-01  0.870892D-01  0.168116D-01 -0.280467D-01  0.111927D-01
     59  0.874985D-01  0.171429D+00  0.359171D-01 -0.178958D+00  0.248338D-02
     60  0.227822D-01  0.661698D-01 -0.357907D-01 -0.196281D-01  0.197008D+00
                6             7             8             9            10 
      6  0.216752D+02
      7  0.235357D+01  0.157198D+02
      8 -0.347156D+00 -0.215489D+01  0.188340D+02
      9 -0.572789D+01 -0.274468D+00 -0.121791D+01  0.227275D+02
     10  0.200275D+00 -0.564877D+01 -0.211332D+01 -0.210461D+01  0.155392D+02
     11 -0.155210D+00 -0.234501D+01 -0.473920D+01  0.269101D+01 -0.259909D+01
     12  0.131287D+00 -0.211648D+01  0.240555D+01 -0.502052D+01  0.510383D+01
     13  0.307630D-01  0.128977D+00 -0.320863D+00 -0.236053D+00 -0.514944D+01
     14 -0.164303D-01 -0.146776D+00 -0.209069D+00  0.123029D+00  0.409697D+01
     15 -0.148875D+00 -0.213104D+00  0.218690D+00 -0.776150D-01 -0.383731D+01
     16  0.651369D-02  0.302369D-01 -0.157932D+00  0.688694D-01 -0.112411D+00
     17  0.394656D-02 -0.194797D+00  0.406021D+00  0.860568D-01  0.813322D-01
     18 -0.170978D+00 -0.173171D-01  0.281467D-01  0.416855D+00  0.128016D+00
     19  0.353810D+00 -0.575920D+01  0.540088D+01  0.329466D-01 -0.121910D+00
     20 -0.239285D-02  0.554482D+01 -0.181494D+01  0.445303D+00 -0.182975D+00
     21  0.371947D+00  0.240881D+00  0.695856D+00 -0.940623D+01 -0.144618D-02
     22  0.311478D+00  0.100025D+00 -0.278931D+00  0.198646D+00 -0.377278D-02
     23 -0.283056D+01 -0.321598D+00  0.118957D+00 -0.204994D+00 -0.765331D-01
     24 -0.239058D+01  0.180610D+00 -0.142085D+00 -0.920058D-01  0.289017D-01
     25 -0.525389D+00  0.408200D+00 -0.148481D+00  0.192657D+00  0.147131D+00
     26  0.213500D+00 -0.201583D+00 -0.219159D+00 -0.131819D+00 -0.290782D+00
     27 -0.734765D+01  0.239693D+00 -0.174514D+00 -0.318759D-01 -0.436242D-01
     28  0.358510D-01  0.200201D-01 -0.113763D-01 -0.200418D-01 -0.176703D-02
     29  0.846147D-02 -0.618760D-03 -0.363884D-01 -0.634229D-02  0.521881D-02
     30  0.103456D+00 -0.626115D-01 -0.228143D-01 -0.226602D-02 -0.298510D-01
     31 -0.409522D-02  0.239949D+00  0.461948D-01  0.611008D-01  0.279295D-01
     32 -0.176145D-01  0.361201D-01 -0.531294D-01  0.106431D-01 -0.114956D-01
     33 -0.112193D+00  0.613731D-01  0.115070D-01 -0.424036D-01  0.491933D-02
     34 -0.161275D-01 -0.234746D-01  0.569722D-02 -0.618019D-03  0.510952D-01
     35  0.208874D-01  0.349364D-01  0.227038D-01  0.172652D-01  0.627165D-01
     36  0.326986D-01  0.272325D-01  0.293467D-01 -0.665431D-02  0.371042D-01
     37 -0.278227D+00 -0.545984D+01  0.147848D+00 -0.309148D+00  0.786281D-02
     38  0.116221D+00  0.171036D+00 -0.495772D+01 -0.112442D+01  0.751746D-01
     39 -0.125018D+00 -0.350120D+00 -0.110620D+01 -0.301158D+01  0.987733D-02
     40  0.393680D-02  0.240503D+00  0.746820D-01  0.620341D-02 -0.495975D+01
     41  0.143923D-01  0.184469D-01 -0.321497D+00 -0.233776D+00  0.112253D+01
     42 -0.347092D-01 -0.203238D-01 -0.224451D+00  0.115615D+00  0.300199D+00
     43 -0.173852D-01  0.198184D+00 -0.627043D-01 -0.176430D+00 -0.111862D+00
     44  0.721194D-02 -0.768577D-01 -0.611940D-01  0.426785D-01 -0.180740D-02
     45 -0.464244D-02 -0.181222D+00  0.353653D-01  0.593778D-01  0.130689D+00
     46 -0.313543D-01  0.426003D-01  0.117198D+00 -0.936533D-01 -0.401392D-01
     47 -0.219635D-01  0.147765D+00  0.586368D-01 -0.114919D+00 -0.303443D-01
     48 -0.201626D-01 -0.136080D+00 -0.127141D+00  0.149719D-01 -0.223124D-01
     49 -0.396631D-02  0.143349D+00  0.881260D-01  0.127257D-01  0.598013D-01
     50 -0.103857D-02  0.614761D-01 -0.160544D-01  0.453459D-02  0.208909D-01
     51 -0.252365D-02  0.484802D-01  0.167804D-01 -0.362423D-01  0.843573D-01
     52  0.166597D+00  0.196306D-01 -0.208890D-01  0.560327D-01  0.328269D-01
     53  0.298698D-01 -0.154276D-01 -0.199523D-01 -0.140568D-01 -0.223318D-01
     54  0.285212D+00  0.583366D-01 -0.273081D-01  0.464672D-01  0.340018D-01
     55 -0.165639D+00 -0.105382D-01 -0.116601D-02 -0.685623D-02 -0.299983D-01
     56 -0.705295D-01 -0.295799D-01 -0.263655D-02 -0.621493D-02 -0.247395D-01
     57  0.137670D+00  0.308889D-01  0.483957D-02 -0.372049D-01  0.111528D-01
     58  0.294526D-01 -0.124347D-01  0.205713D+00  0.369824D-01 -0.151433D-02
     59  0.182585D+00  0.176905D+00 -0.242578D+00 -0.638253D-01 -0.525715D-01
     60  0.111886D+00  0.371087D-01 -0.672399D-01  0.972013D-01 -0.168320D-01
               11            12            13            14            15 
     11  0.163488D+02
     12 -0.303670D+01  0.233330D+02
     13  0.481829D+01 -0.368484D+01  0.145010D+02
     14 -0.994666D+01  0.192688D-03 -0.294207D+01  0.165146D+02
     15 -0.316679D+00 -0.130655D+02  0.508019D+01 -0.299167D+01  0.227271D+02
     16 -0.137201D+00  0.531942D-01 -0.696806D+01  0.321805D+00  0.214214D+00
     17  0.154133D+00  0.164745D-01 -0.159109D+00 -0.155393D+01  0.249479D+01
     18  0.110777D+00  0.118612D-01 -0.125989D-01  0.231355D+01 -0.580052D+01
     19 -0.265901D+00 -0.411903D-01 -0.221794D+00 -0.143897D+00  0.179677D-02
     20  0.315069D+00  0.201107D+00 -0.105497D+00  0.924887D-01  0.195869D+00
     21  0.145448D+00 -0.795505D-01  0.273467D-01  0.206484D+00  0.705098D-01
     22 -0.102439D+00  0.387215D-01  0.216383D+00 -0.129787D+00  0.316492D-01
     23 -0.934508D-01 -0.214626D-01 -0.143888D+00 -0.780277D-01 -0.103524D-01
     24 -0.951600D-02 -0.100359D+00  0.493908D-01 -0.184087D-01 -0.111162D+00
     25 -0.330730D+00 -0.731644D-01  0.144582D+00 -0.946335D-01 -0.560770D-01
     26  0.116808D+00  0.673242D-01 -0.986605D-01 -0.458695D-01  0.272464D-01
     27  0.475879D-01 -0.154042D+00 -0.408115D-01  0.178854D-01 -0.696393D-01
     28  0.767353D-02 -0.880700D-02  0.130133D-01  0.559720D-02 -0.834567D-02
     29 -0.114696D-01 -0.433116D-02  0.976689D-02 -0.503177D-02 -0.381918D-02
     30 -0.112830D-01  0.247773D-02 -0.297919D-01 -0.949069D-02  0.338714D-02
     31 -0.127662D-02  0.165656D-02  0.316988D-01  0.557342D-02 -0.343710D-02
     32 -0.123401D-01 -0.144294D-02 -0.630043D-02 -0.758029D-02  0.475694D-03
     33 -0.178121D-03 -0.103317D-01  0.452956D-02  0.837681D-03 -0.629062D-02
     34  0.320377D-01  0.980304D-02  0.335585D-01  0.161891D-01 -0.360315D-02
     35 -0.216712D-01  0.629840D-02  0.419102D-01  0.242869D-02 -0.308104D-02
     36  0.134866D-01 -0.399147D-01  0.147063D-01  0.631128D-02 -0.149607D-01
     37  0.619393D-01  0.273544D-01 -0.648248D-01  0.139705D-01  0.221810D-02
     38 -0.145555D-01 -0.150596D+00  0.169136D-01 -0.570734D-02 -0.234352D-01
     39 -0.110291D+00  0.143887D+00 -0.188157D-01 -0.215164D-01  0.798078D-01
     40  0.886106D+00  0.248536D+00  0.258415D-01 -0.213903D+00 -0.243340D-01
     41 -0.240462D+01  0.699417D+00 -0.221965D+00 -0.124616D+00 -0.709870D-02
     42  0.681860D+00 -0.506932D+01 -0.107295D-01  0.958097D-02  0.166072D+00
     43  0.189420D-01  0.157615D+00 -0.317650D+01 -0.773172D+00 -0.128211D+01
     44  0.157516D+00  0.116930D-01 -0.759649D+00 -0.447593D+01  0.573360D+00
     45  0.116455D-03  0.500113D-01 -0.122795D+01  0.559860D+00 -0.379335D+01
     46 -0.569029D-01 -0.146097D-01  0.211200D-01 -0.447859D-03 -0.104629D-01
     47  0.123923D-01 -0.611610D-01  0.191327D-01  0.556272D-01 -0.841350D-01
     48 -0.642774D-01  0.287804D-01 -0.503392D-02 -0.163291D+00  0.587596D-01
     49  0.264350D-01  0.710544D-01  0.114873D+00  0.395591D-01  0.765698D-01
     50 -0.532662D-01  0.416211D-01 -0.242887D-02 -0.588651D-01 -0.520657D-01
     51  0.565509D-01  0.287813D-01  0.613587D-01  0.346361D-02  0.714770D-01
     52 -0.331574D-01  0.347060D-01  0.315720D-01 -0.651241D-02  0.891114D-02
     53 -0.515006D-02 -0.130444D-01 -0.434354D-02 -0.849143D-02 -0.113571D-02
     54 -0.228047D-01  0.582159D-02  0.222069D-01 -0.298860D-02 -0.401404D-02
     55  0.466446D-03 -0.622980D-02 -0.944080D-02 -0.170466D-01  0.300376D-02
     56  0.393718D-01 -0.324842D-01 -0.559166D-01  0.443792D-02 -0.121416D-01
     57 -0.360062D-01 -0.126334D-01  0.298021D-01 -0.165398D-01 -0.196337D-01
     58 -0.333047D-01 -0.888302D-02 -0.565906D-02 -0.654881D-02 -0.339168D-02
     59  0.649008D-01  0.198489D-01 -0.334276D-01  0.726210D-02  0.117676D-01
     60  0.296388D-01 -0.149649D-01 -0.202719D-01  0.100284D-01 -0.297797D-02
               16            17            18            19            20 
     16  0.150393D+02
     17 -0.266250D-01  0.183700D+02
     18  0.317639D+01 -0.151256D+01  0.194228D+02
     19 -0.108381D+01 -0.517324D+00 -0.442426D+01  0.610038D+01
     20 -0.858454D+00 -0.874004D+01  0.586320D+00 -0.352380D+01  0.111638D+02
     21 -0.471605D+01  0.425476D+00 -0.627686D+01  0.265797D+01 -0.142227D+01
     22  0.239973D+00 -0.335861D-01  0.128146D+00  0.371178D+00  0.113218D+00
     23  0.645858D-02 -0.131863D+00  0.124969D-02  0.853371D-01 -0.430320D+00
     24  0.117306D+00 -0.968841D-02 -0.906334D-01  0.520049D+00  0.773441D-01
     25  0.225807D+00 -0.773035D-01 -0.242876D-01  0.469453D+00 -0.126217D+00
     26 -0.300944D-01 -0.101995D+00  0.501744D-02 -0.721941D-01 -0.328776D+00
     27 -0.855272D-02  0.644131D-02 -0.113398D+00  0.224312D+00 -0.165926D-01
     28  0.764573D-02  0.686941D-02 -0.438032D-02  0.198974D-01  0.321359D-01
     29  0.105534D-01 -0.228845D-02 -0.315822D-02  0.360766D-01  0.102792D-01
     30 -0.155924D-01 -0.590503D-02 -0.158229D-02 -0.347482D-01 -0.303264D-01
     31  0.194118D-01  0.390523D-02  0.324109D-03  0.356516D-01  0.247656D-01
     32  0.526503D-03 -0.494912D-02 -0.614407D-03 -0.320987D-03 -0.129641D-01
     33  0.400754D-02  0.283205D-03 -0.521793D-02  0.143439D-01  0.732169D-02
     34  0.258015D-02  0.676814D-02  0.944499D-03 -0.106983D-02  0.151528D-01
     35  0.182442D-01  0.352711D-02  0.205867D-02  0.363534D-01  0.273239D-01
     36  0.846894D-02  0.492431D-02 -0.641807D-02  0.211049D-01  0.252599D-01
     37  0.606593D-01  0.847617D-01 -0.103791D+00 -0.139956D+00 -0.219443D+00
     38  0.114583D+00 -0.619765D-04 -0.881518D-01 -0.228996D+00 -0.898001D-01
     39 -0.151418D+00 -0.984696D-01  0.565520D-01 -0.201640D-01 -0.192861D+00
     40  0.117413D-01  0.167318D+00  0.315160D-01 -0.528341D-01  0.457233D-01
     41  0.192918D+00  0.268328D+00  0.446238D-01  0.232919D-01  0.206089D+00
     42  0.393083D-01  0.526286D-01 -0.656034D-01  0.911646D-02  0.857264D-01
     43  0.882437D-01  0.157341D+00  0.102610D+00  0.504567D-01 -0.107177D+00
     44  0.147790D+00 -0.543112D-01 -0.173433D+00 -0.788216D-01  0.259236D-01
     45  0.925536D-01 -0.168131D+00  0.445219D-02 -0.929047D-01  0.948281D-01
     46 -0.491041D+01  0.303256D+00 -0.355533D+00 -0.328346D+00 -0.570030D-01
     47  0.115415D+00 -0.361098D+01 -0.145167D+01 -0.324338D-01  0.205328D+00
     48 -0.139515D+00 -0.135802D+01 -0.341890D+01  0.179144D+00 -0.107214D+00
     49 -0.301834D+01  0.846180D-01  0.136059D+01  0.129959D-01 -0.551736D-01
     50  0.186534D+00 -0.481378D+01  0.149362D+00 -0.384430D-01  0.720863D-01
     51  0.120541D+01  0.658809D-01 -0.388935D+01  0.405137D+00 -0.141742D-01
     52  0.261587D-01 -0.450621D-02  0.168581D-01  0.426073D-01  0.889008D-02
     53  0.299652D-02 -0.981234D-02  0.166587D-02  0.690961D-02 -0.195566D-01
     54  0.208906D-01 -0.284411D-02  0.835589D-03  0.535580D-01  0.692547D-02
     55 -0.111652D-03 -0.127815D-02  0.150543D-01 -0.742428D-01  0.228580D-03
     56 -0.240375D-01 -0.244556D-01 -0.143092D-01 -0.314096D-01 -0.894884D-01
     57  0.483765D-01 -0.113208D-01 -0.549508D-02  0.118725D+00 -0.104471D-01
     58  0.271775D-02 -0.110335D-01 -0.467427D-02  0.198264D+00 -0.151344D+00
     59 -0.374429D-01  0.450250D-02  0.702874D-02 -0.302037D+00 -0.105203D+00
     60 -0.235264D-01  0.113600D-01 -0.125040D-01 -0.471845D-01  0.179172D-01
               21            22            23            24            25 
     21  0.152365D+02
     22  0.576527D+00  0.185442D+02
     23  0.710692D-01 -0.135645D-01  0.200726D+02
     24 -0.643320D-01  0.475603D+00  0.188962D+01  0.122681D+02
     25  0.204376D+00 -0.625178D+01 -0.902310D+00 -0.209302D+01  0.160767D+02
     26  0.263313D-03 -0.885951D+00 -0.630733D+01  0.181335D+01  0.240664D+01
     27 -0.285972D+00 -0.177924D+01  0.148776D+01 -0.851760D+00  0.791663D+00
     28 -0.643636D-02 -0.344442D-01  0.600645D-01 -0.708072D-01 -0.261831D-01
     29 -0.489904D-02  0.518868D-01  0.576923D-01 -0.135548D+00 -0.185132D-01
     30 -0.159406D-01 -0.685145D-01 -0.149971D+00  0.115210D+00  0.124866D-01
     31  0.138149D-01  0.945774D-02  0.359709D-01 -0.871945D-02 -0.895047D-01
     32 -0.433806D-03 -0.660009D-02 -0.172423D-01  0.611878D-02 -0.450817D-02
     33 -0.789850D-02  0.122923D-01  0.432430D-02 -0.251951D-01  0.323864D-02
     34  0.603890D-02 -0.714610D-03 -0.419226D-01  0.547058D-02 -0.610406D-01
     35  0.184070D-01 -0.154367D-01 -0.646626D-01  0.169454D-02 -0.288738D-01
     36 -0.492419D-02  0.230194D-02  0.184801D-01  0.117096D-01 -0.893453D-02
     37 -0.811035D-03 -0.298921D-01 -0.630210D-01  0.117230D+00 -0.922301D-02
     38 -0.124502D+00 -0.780099D-01 -0.564494D-03 -0.155970D+00 -0.408151D-02
     39  0.319297D+00  0.153402D+00 -0.162194D+00  0.234907D+00  0.110184D-01
     40  0.190945D-01 -0.123475D-01 -0.932803D-02  0.234897D-02 -0.892750D-02
     41  0.995937D-01 -0.387447D-01  0.392900D-01 -0.133020D-01 -0.448525D-01
     42 -0.219363D-01  0.742029D-03 -0.123231D-02 -0.157136D-01 -0.102456D-01
     43 -0.106415D+00  0.285423D-01 -0.138627D-01 -0.833315D-03  0.304604D-01
     44  0.796047D-01 -0.183162D-01 -0.258476D-02  0.656706D-03 -0.188325D-01
     45  0.443561D-01 -0.136054D-01  0.448370D-02 -0.877333D-02 -0.195984D-01
[...]
 00226031,0.02404759,-0.06339231,-0.01001929,-0.01633664,0.00277252,0.0
 1034678,-0.02994952,0.00225831,-0.00034852,-0.00033653,0.00002581,-0.0
 0011009,0.00044666,0.00070983,0.00059859,-0.00096951,-0.00130388,0.000
 36866,0.00064533,0.61949962,-0.00233277,-0.00988455,0.02145581,-0.0037
 8829,-0.12076562,0.10660634,0.00642318,-0.00557331,0.00735424,-0.00064
 855,-0.00004731,0.00000280,-0.00005708,0.00061605,-0.00027153,-0.00040
 974,0.00011193,-0.00025834,-0.00077913,-0.00159260,-0.00107103,0.13868
 974,0.32054248,0.00074922,0.00113014,-0.00333688,-0.02672230,0.1486143
 8,-0.16535854,-0.00119561,0.00223809,-0.01353220,0.00171957,-0.0006096
 9,0.00126858,0.00023529,-0.00068595,0.00044679,0.00016679,-0.00078429,
 0.00060009,0.00098323,0.00082083,-0.00162588,0.04810827,-0.08681186,0.
 64553139,0.01230070,-0.01473450,-0.01500258,-0.08884130,0.03581760,-0.
 01784100,-0.01570455,0.02571556,0.02001691,-0.00529488,-0.00065205,-0.
 00550107,-0.00147086,0.00170722,0.00092358,0.00055941,0.00155590,-0.00
 076661,-0.00130749,0.00255129,0.00049466,-0.07549029,-0.01862754,0.033
 58830,0.40541160,0.00927345,-0.03148075,-0.01228933,0.07421721,-0.2072
 1295,-0.01407099,0.01229089,-0.01522907,-0.00615202,0.00114324,0.00105
 358,0.00318237,0.00033441,-0.00096770,-0.00000201,0.00057455,-0.000165
 00,-0.00132546,-0.00485744,0.00142865,0.00170206,-0.00788615,-0.051817
 17,-0.09080470,0.10782363,0.45399752,0.00115349,-0.00031471,0.00144306
 ,-0.01166416,-0.05832126,-0.03979307,-0.00587430,0.01384228,0.00563611
 ,-0.00099530,-0.00044268,-0.00106468,-0.00059490,0.00009002,0.00116761
 ,0.00111242,0.00055129,-0.00097300,-0.00130521,0.00135463,0.00192715,0
 .06900373,-0.03632017,-0.19834978,0.07718521,0.18736290,0.36076101,-0.
 04998273,-0.00654657,0.02690024,-0.00282455,-0.00503049,0.02261298,0.0
 0047572,-0.00066225,0.00204954,-0.00011346,0.00005878,-0.00013922,-0.0
 0000312,-0.00001406,-0.00009081,0.00000220,0.00010186,0.00008911,0.000
 44989,0.00041077,-0.00051129,-0.00319045,-0.00125915,-0.00041164,0.001
 30332,0.00063827,-0.00137146,0.05070826,-0.00600311,-0.06070430,0.0590
 1817,-0.00225756,-0.00717442,0.02622697,0.00110230,0.00007348,0.000528
 65,0.00007384,-0.00002490,-0.00014210,0.00001608,0.00001539,-0.0000235
 6,0.00008596,0.00004227,0.00000668,0.00011483,0.00006206,-0.00032789,-
 0.00485142,-0.00170065,0.00092954,0.00166022,0.00179447,-0.00174426,0.
 01065845,0.06320429,0.02710081,0.05920819,-0.30157560,-0.00000289,0.00
 101226,-0.00230412,-0.00078679,-0.00006487,0.00002058,0.00009780,-0.00
 003785,0.00003701,-0.00004315,-0.00003660,0.00007105,-0.00006605,-0.00
 006167,0.00006325,0.00006603,-0.00011340,0.00034149,0.00090559,-0.0011
 7747,0.00103166,-0.00001089,0.00161965,0.00122205,-0.03066758,-0.06647
 154,0.32130975,-0.26981100,0.07054467,-0.09033131,-0.01963253,0.007011
 87,-0.00789450,0.00025681,-0.00336936,0.00146443,0.00033672,-0.0000352
 2,-0.00006627,-0.00002903,-0.00000768,0.00007855,0.00014140,-0.0001551
 4,-0.00046557,-0.00157591,-0.00037300,-0.00002906,-0.00005894,0.000981
 83,-0.00031761,0.00172808,0.00137106,0.00039081,0.00500927,-0.00222157
 ,0.00287874,0.28896296,0.07393059,-0.06761801,0.03018689,-0.02426324,0
 .00562901,-0.00984668,-0.00061550,-0.00381061,0.00116458,0.00024113,-0
 .00025963,-0.00015194,-0.00007649,0.00012966,0.00012898,0.00008993,-0.
 00016410,-0.00051249,-0.00207640,-0.00039154,-0.00009781,-0.00095339,0
 .00125624,-0.00000920,0.00030279,0.00166809,-0.00037153,0.00546201,-0.
 00249233,0.00112734,-0.07350079,0.07143500,-0.09104451,0.02929882,-0.0
 8165571,0.00478346,-0.00080216,-0.00011945,-0.00007324,0.00043343,-0.0
 0032088,0.00003044,-0.00009074,-0.00007947,-0.00003648,0.00006855,0.00
 006756,0.00003116,-0.00007360,0.00006237,0.00014508,0.00015422,0.00049
 849,0.00104392,0.00012936,0.00090320,-0.00021548,-0.00038648,-0.000281
 64,-0.02723280,0.00776093,-0.00859380,0.09657259,-0.03255278,0.0835815
 1,-0.07437127,0.06775450,0.04202244,0.00892320,-0.01678459,-0.01203092
 ,0.00029672,0.00014237,-0.00026788,-0.00088011,-0.00040704,-0.00011381
 ,-0.00007871,0.00005306,0.00010661,0.00002517,0.00005631,-0.00001772,0
 .00032502,0.00036157,0.00015011,0.00075338,0.00142551,0.00009801,-0.00
 252047,-0.00329517,-0.00069288,-0.00187255,0.00179259,0.00029824,-0.00
 585808,0.02123463,0.01566428,0.07580412,0.06711099,-0.22485431,-0.1088
 7121,0.01124950,-0.01650815,-0.01158895,0.00058885,-0.00027745,-0.0001
 1791,0.00013290,-0.00032948,-0.00029700,-0.00016276,0.00023137,0.00024
 308,0.00031774,-0.00002614,-0.00025690,-0.00042974,0.00031208,0.000275
 60,0.00063439,0.00070721,0.00011620,-0.00471478,-0.00327879,-0.0015463
 9,-0.00310522,0.00739508,0.00480809,0.00013278,-0.00562623,-0.00386093
 ,-0.07155156,0.24330314,0.04204819,-0.10979465,-0.11474012,-0.00230510
 ,0.00436649,0.00147473,0.00012126,-0.00052519,0.00001853,0.00009393,-0
 .00037023,-0.00009734,-0.00003996,0.00020947,0.00008055,0.00008313,-0.
 00001673,-0.00004764,-0.00012276,0.00013844,-0.00003063,-0.00093873,-0
 .00095900,0.00080595,0.00080316,0.00211322,0.00109913,0.00901815,-0.02
 528263,-0.01205444,-0.00283907,0.01066181,0.00606845,-0.04602200,0.119
 01315,0.11715597,0.00117419,0.00105385,-0.00106088,-0.00025618,0.01033
 450,-0.03000413,-0.04916507,-0.00649436,0.02224761,-0.00269774,-0.0040
 0137,0.01680864,0.00009367,0.00144422,0.00066304,0.00091708,-0.0034569
 3,0.00287693,-0.00681238,-0.01395187,0.01636698,-0.00527143,-0.0008186
 5,-0.00223125,0.00177264,-0.00076508,0.00154226,-0.00055547,-0.0004049
 6,0.00061253,0.00021340,0.00008315,0.00030620,-0.00001854,-0.00007967,
 0.00011149,0.06334022,-0.00059015,0.00040053,-0.00080554,0.00090645,-0
 .00137174,0.01083143,-0.00319091,-0.07286833,0.07058657,0.00335134,0.0
 1133014,-0.01932359,0.00119081,-0.00228648,-0.00190584,0.00413646,-0.0
 0422281,0.00099344,-0.01951990,-0.02051243,0.02206725,0.00144099,0.001
 05114,0.00066021,-0.00087019,0.00106473,-0.00080919,0.00009796,0.00034
 957,-0.00010318,0.00003141,-0.00008483,-0.00018098,0.00007090,0.000007
 95,-0.00008482,0.01495744,0.08741585,0.00072660,0.00013552,0.00047578,
 -0.00006874,0.00591278,-0.01436425,0.02353478,0.07635249,-0.26504266,0
 .00402227,0.00426388,-0.01407108,-0.00027114,-0.00219799,-0.00092671,-
 0.00026385,0.00083464,-0.00059620,0.00164627,0.00126098,0.01074163,-0.
 00212340,-0.00139802,0.00016685,-0.00014771,0.00075721,0.00093777,-0.0
 0080081,-0.00050590,0.00034695,-0.00000253,-0.00009808,0.00039709,-0.0
 0001011,0.00001421,-0.00006669,-0.02741728,-0.08557921,0.28152868,-0.0
 0053837,0.00050794,0.00032947,0.00086639,-0.00065765,-0.00019832,0.008
 50127,0.01247109,0.00049924,-0.07566185,-0.07975098,-0.01286120,0.0007
 9676,-0.02435154,-0.00799489,-0.00280534,-0.00299661,0.00660339,0.0001
 0643,0.00489750,0.00300735,-0.00022290,0.00010268,-0.00021349,0.000005
 97,-0.00027558,-0.00024904,0.00004361,-0.00005956,-0.00001831,-0.00000
 428,-0.00019195,-0.00008051,-0.00092582,-0.00013829,-0.00005746,0.0000
 0480,-0.00047936,0.00032456,0.06985292,-0.00008657,-0.00035803,-0.0001
 8780,-0.00056802,-0.00011078,-0.00040918,-0.00790292,-0.00560907,0.001
 91881,-0.08304343,-0.31177823,-0.07302066,0.00265680,-0.00331712,-0.00
 534428,-0.00149064,0.00086289,-0.00363006,-0.00092499,-0.00158890,-0.0
 0127180,0.00011707,-0.00007638,0.00016274,0.00014628,0.00026842,0.0002
 6484,-0.00003229,0.00002454,0.00005806,-0.00004307,0.00019949,0.000109
 01,0.00018067,0.00048425,0.00015411,0.00042919,-0.00009976,-0.00049051
 ,0.09008146,0.32189858,-0.00008081,-0.00014350,-0.00011363,-0.00013114
 ,-0.00050576,-0.00019771,-0.00818603,-0.00916390,0.00097424,-0.0141008
 2,-0.07533269,-0.06146564,0.00353879,0.00919716,0.00770089,0.00717749,
 -0.00305593,0.00649204,0.00072656,-0.00418052,0.00021581,0.00001594,0.
 00010640,-0.00005483,0.00031353,-0.00009729,0.00000926,0.00005349,-0.0
 0003693,-0.00010473,-0.00001591,0.00014403,0.00003860,0.00009410,0.000
 12281,0.00030839,-0.00006233,0.00100522,0.00001202,0.01410032,0.079629
 94,0.05024631,-0.00003328,0.00005839,-0.00002318,0.00039812,-0.0003658
 5,-0.00010619,-0.00065510,-0.00430755,0.00495319,-0.00860097,0.0138823
 6,0.01367717,-0.20947446,0.07994073,0.12896156,0.00467380,-0.00256639,
 -0.00359446,0.00149136,-0.00258121,-0.00061162,-0.00013183,-0.00000058
 ,-0.00015058,0.00018735,-0.00013401,-0.00012306,0.00003219,0.00001258,
 -0.00001540,-0.00002919,-0.00000794,-0.00000726,0.00002514,-0.00000644
 ,0.00001048,-0.00083625,0.00118259,0.00072996,-0.00037245,0.00090969,-
 0.00281498,0.21362549,0.00009069,-0.00000277,0.00001042,0.00004809,0.0
 0111509,0.00083869,-0.00550634,-0.00280972,-0.00317730,-0.01290285,0.0
 1131876,0.00959650,0.08296514,-0.10019833,-0.07304639,0.01831170,0.001
 75031,-0.00911940,0.00335869,-0.00356907,-0.00434586,0.00012043,-0.000
 10820,0.00008041,-0.00056542,0.00036910,0.00005330,-0.00000968,-0.0000
 0905,0.00000167,0.00000501,0.00001370,-0.00000013,0.00000005,-0.000003
 94,-0.00000268,0.00035103,-0.00007048,-0.00017540,0.00190562,-0.000405
 19,0.00151857,-0.08690865,0.09243706,-0.00001392,-0.00002735,0.0000509
 2,0.00049992,-0.00157662,-0.00124965,0.00401275,-0.00350210,0.00779759
 ,0.00172486,-0.00509018,0.00216946,0.13067297,-0.07118949,-0.13879092,
 0.00593871,0.00198019,-0.00212038,0.00137135,-0.00104471,0.00098937,-0
 .00018804,0.00008988,-0.00019523,0.00092837,-0.00034554,0.00006313,0.0
 0002476,0.00002153,-0.00001970,0.00001435,0.00000851,-0.00000289,0.000
 01589,0.00003956,0.00000399,-0.00083134,0.00144741,0.00069979,-0.00240
 439,0.00198788,-0.00403719,-0.14138524,0.07734907,0.13447617,-0.000181
 41,0.00011349,-0.00012237,0.00055221,0.00001053,0.00036285,0.00026634,
 0.00104762,0.00680162,0.00029535,0.00096719,0.00024959,0.00119471,-0.0
 0282375,-0.00193287,-0.04823555,-0.00358604,0.00418205,-0.01561863,-0.
 02337630,0.02414177,-0.00024110,0.00003923,0.00021499,0.00007302,-0.00
 004742,-0.00025860,0.00007582,0.00004564,-0.00006793,-0.00005561,-0.00
 003426,-0.00002773,0.00001251,-0.00001339,0.00000569,-0.00168628,-0.00
 201036,-0.00005066,0.00021100,-0.00023258,-0.00003650,0.00008371,-0.00
 034336,0.00005273,0.06032582,-0.00004321,0.00002979,-0.00013351,0.0001
 1289,0.00000510,-0.00011152,0.00017576,-0.00164960,0.00089770,0.001319
 03,-0.00274558,-0.00174976,-0.00326361,-0.01863162,0.01894083,-0.01015
 792,-0.18088355,0.12894551,0.00027388,0.00862273,-0.00469037,-0.000371
 21,-0.00027926,0.00020980,-0.00013077,0.00005147,-0.00013084,0.0000468
 5,0.00002584,0.00000198,-0.00004646,-0.00000113,0.00000746,0.00005889,
 0.00004927,0.00003042,-0.00048495,0.00057097,0.00027234,-0.00146291,0.
 00047001,-0.00143362,0.00005190,0.00014283,-0.00073798,0.01450348,0.19
 066408,0.00010268,-0.00010109,0.00004901,0.00011129,-0.00019824,0.0001
 2563,-0.00248324,-0.00304493,-0.00322075,-0.00021167,-0.00211367,-0.00
 075791,-0.00191250,-0.01019827,0.01431604,0.00643401,0.12504158,-0.172
 22911,0.01622039,0.00812379,-0.00743953,0.00021444,0.00005840,-0.00015
 396,0.00017526,0.00001191,0.00012843,-0.00003986,-0.00000720,0.0000108
 1,0.00003779,0.00004119,0.00001856,0.00001121,0.00003485,0.00000567,0.
 00054998,0.00127256,0.00008572,-0.00100901,0.00042993,-0.00081848,0.00
 025587,0.00093537,-0.00020389,-0.01707202,-0.13795711,0.18419021,-0.00
 058389,0.00043096,-0.00033383,-0.00104208,-0.00192417,0.00028096,-0.00
 258562,0.00612074,-0.00256521,0.00056052,0.00113652,0.00010686,0.00433
 298,-0.00326618,0.00057298,-0.17803049,-0.01723586,-0.12327417,-0.0346
 3706,-0.00614435,-0.00363725,0.00003456,-0.00009439,0.00013399,-0.0001
 5620,-0.00033447,-0.00007441,0.00002311,-0.00001163,0.00004737,-0.0001
 8244,-0.00020017,0.00001655,0.00002257,-0.00006153,-0.00001709,-0.0000
 4947,-0.00019304,0.00023021,0.00005163,-0.00006345,-0.00047254,-0.0003
 8736,-0.00069186,-0.00046360,0.00281039,-0.00061661,-0.00117091,0.2093
 0523,-0.00004834,-0.00003897,-0.00006675,0.00001436,0.00050268,0.00050
 757,-0.00191067,-0.00184899,-0.00097647,0.00123844,-0.00276657,-0.0019
 2759,-0.02362387,-0.00329273,-0.01929577,-0.02120521,-0.05254685,-0.01
 680781,0.00532288,0.00465614,-0.00089446,-0.00011293,-0.00022284,0.000
 20263,-0.00018287,0.00024172,-0.00002086,0.00001404,0.00001157,-0.0000
 0190,-0.00003193,0.00001381,0.00001319,0.00002495,0.00005015,0.0000217
 1,0.00011624,0.00000204,-0.00000505,0.00045754,-0.00095126,0.00210348,
 0.00074153,-0.00000734,0.00036751,0.01579141,0.00345463,0.01728062,0.0
 2341324,0.05271230,0.00024577,-0.00012011,0.00013668,0.00096759,0.0010
 6626,0.00004580,0.00092046,-0.00211341,0.00079603,0.00139596,-0.001382
 20,-0.00119451,-0.00856861,-0.00109049,-0.00507318,-0.12982428,-0.0172
 8815,-0.16786938,0.02066892,0.00390274,0.01489970,0.00016407,0.0001168
 4,-0.00017641,-0.00022082,0.00028940,0.00010771,-0.00000862,-0.0000157
 4,-0.00000249,0.00005126,0.00009362,-0.00000705,0.00001139,0.00003447,
 0.00001251,-0.00036096,-0.00014313,-0.00029118,0.00012705,-0.00028010,
 0.00080815,0.00021989,-0.00033083,0.00020189,-0.01623540,-0.00224710,-
 0.01410584,0.13062766,0.01957108,0.17170227,0.00054123,-0.00064274,0.0
 0095106,-0.00416828,-0.00180727,0.00149037,0.00013825,-0.00060573,-0.0
 0052246,0.00024471,-0.00015052,-0.00009199,0.00003457,-0.00006959,-0.0
 0003001,0.00054786,-0.00019183,0.00004348,-0.00012461,0.00064880,-0.00
 077700,-0.21238994,-0.02894343,-0.14429755,0.01503417,0.00283763,0.008
 90505,-0.00003412,-0.00008450,0.00002965,0.00018269,0.00015866,0.00013
 104,0.00003740,0.00001961,-0.00011093,-0.00024306,0.00008610,-0.000256
 75,-0.00003524,0.00007739,-0.00000929,-0.00001710,0.00001789,0.0000058
 8,0.00012006,0.00007714,0.00001750,-0.00005465,0.00005313,-0.00006139,
 0.21227037,0.00090875,0.00106517,-0.00183401,0.02249219,0.00484950,0.0
 1337048,-0.00243830,-0.00129710,0.00411959,-0.00039069,0.00034846,0.00
 010306,0.00005484,-0.00012085,-0.00019492,0.00007781,-0.00003281,0.000
 14508,-0.00032269,0.00059985,-0.00075347,-0.02696605,-0.04524480,-0.01
 576981,-0.01610629,-0.00323665,-0.00992696,-0.00002241,0.00036034,-0.0
 0025930,-0.00065056,-0.00008702,0.00010581,0.00002505,-0.00025813,-0.0
 0000162,0.00150897,-0.00041845,0.00070869,0.00006421,-0.00005847,-0.00
 000071,0.00005596,0.00002372,0.00000609,0.00013463,0.00006718,-0.00000
 038,0.00003550,0.00002765,-0.00002103,0.02836035,0.04275918,-0.0011715
 6,0.00009719,0.00085607,-0.00548290,-0.00388841,-0.00860874,0.00171621
 ,0.00003639,-0.00079868,-0.00004381,-0.00028186,-0.00008000,-0.0001799
 0,0.00018315,0.00017776,0.00004378,0.00019209,-0.00026902,-0.00037700,
 -0.00039008,0.00097573,-0.13986620,-0.01865426,-0.16904424,-0.01032994
 ,-0.00475724,-0.02007780,0.00017301,-0.00018880,0.00012016,0.00050544,
 0.00032621,-0.00037270,0.00028284,0.00035362,-0.00004641,-0.00034039,0
 .00012678,-0.00000479,-0.00001248,0.00002361,0.00000712,-0.00003209,-0
 .00001442,0.00003056,-0.00012149,-0.00008458,0.00002178,-0.00005312,-0
 .00003866,0.00003962,0.14747946,0.02257583,0.19115003,-0.00007761,0.00
 023086,-0.00141920,0.00868903,0.00389200,-0.00108219,-0.00133831,0.000
 19182,-0.00000597,0.00003008,-0.00013820,0.00001836,0.00006003,-0.0000
 2550,0.00008974,-0.00059270,0.00035332,-0.00062240,-0.00015947,0.00075
 051,-0.00116646,-0.26199524,-0.10189319,0.07745564,-0.00686657,-0.0022
 1589,0.00636128,0.00035277,0.00045994,-0.00020592,0.00013317,0.0001097
 5,-0.00009024,-0.00004930,-0.00002039,0.00003438,0.00024377,-0.0001363
 0,0.00015043,-0.00000397,-0.00003175,-0.00000997,0.00001285,-0.0000239
 6,-0.00001255,-0.00012485,-0.00020175,0.00007198,0.00005667,-0.0000480
 8,0.00000899,-0.01214971,-0.00724314,0.00814336,0.27227469,0.00022388,
 0.00016634,0.00481641,-0.02387024,-0.00829143,0.00358037,-0.00058663,-
 0.00013208,-0.00121930,-0.00015258,-0.00030185,0.00006051,0.00023491,0
 .00015045,-0.00033669,0.00064276,0.00030855,0.00028956,0.00048585,0.00
 028821,-0.00075514,-0.10381795,-0.08582952,0.03913747,0.02131512,0.009
 35503,-0.00927477,-0.00079339,-0.00146813,0.00031982,0.00021000,0.0001
 1071,-0.00007275,0.00003947,0.00003180,-0.00015140,-0.00037461,-0.0000
 0085,-0.00030395,-0.00003587,0.00002919,0.00003904,0.00003043,-0.00000
 782,0.00000613,-0.00000092,0.00009032,0.00013962,0.00000563,-0.0000210
 4,-0.00005161,0.00018437,-0.00039019,0.00152945,0.10650786,0.08462661,
 -0.00052485,-0.00058453,-0.00067647,0.01045663,-0.00050530,-0.00728413
 ,0.00137623,0.00225765,0.00009746,-0.00047224,-0.00017457,-0.00023485,
 -0.00004879,0.00024163,0.00020735,-0.00160842,0.00037115,-0.00007203,0
 .00046586,-0.00111231,0.00103515,0.07215942,0.03517759,-0.07768576,0.0
 1822625,0.01284082,-0.01541459,0.00032683,0.00015675,0.00018635,0.0002
 0156,-0.00001387,-0.00013105,0.00001532,0.00022127,0.00014774,0.000060
 21,-0.00026335,0.00019927,0.00004256,-0.00007438,-0.00002115,0.0000089
 7,-0.00010693,0.00001601,-0.00016201,-0.00004241,-0.00001794,0.0001535
 5,-0.00006139,-0.00000398,-0.01589853,-0.00782858,0.00927343,-0.086267
 50,-0.04061133,0.08837764,-0.00080381,-0.00038469,0.00021892,0.0030223
 5,0.01264101,0.01084356,0.00077445,0.00366879,-0.00152828,-0.00020943,
 -0.00084213,-0.00009550,0.00038440,0.00007312,-0.00011021,-0.00262216,
 -0.00050010,0.00148520,-0.00364163,0.00178783,-0.00126524,-0.00065040,
 0.01199031,0.01208675,-0.24072367,-0.19069312,-0.14245090,0.00010028,-
 0.00012813,-0.00015182,0.00027250,0.00030749,0.00008354,0.00034962,0.0
 0009701,0.00012323,-0.00016790,-0.00046222,0.00004789,0.00012943,-0.00
 017887,-0.00009990,0.00000798,-0.00022221,0.00003654,0.00012250,0.0001
 5957,-0.00030319,0.00051160,-0.00002385,-0.00012893,0.00006540,0.00042
 188,-0.00033322,0.00150468,-0.00024807,0.00148897,0.24157381,0.0034147
 4,-0.00371280,-0.00381673,-0.02436974,-0.02414910,-0.01635656,-0.00209
 628,-0.00113913,0.00200334,-0.00073933,-0.00026391,-0.00072826,-0.0007
 1876,0.00032601,0.00050556,0.00121088,0.00093922,-0.00086910,-0.001003
 30,0.00020781,0.00089598,0.00538065,-0.00114285,0.00117305,-0.14201119
 ,-0.15790470,-0.08429567,-0.00001349,0.00021488,0.00017073,0.00014614,
 0.00007973,-0.00006025,-0.00118216,-0.00140968,0.00048012,0.00055388,-
 0.00025676,0.00024136,-0.00008774,0.00011583,0.00008421,0.00001246,0.0
 0002136,0.00021021,-0.00018488,-0.00005349,0.00025106,-0.00030488,0.00
 002389,0.00000947,-0.00002547,0.00104341,0.00285397,-0.00051790,0.0012
 8572,0.00011207,0.16253638,0.18577454,-0.00103680,0.00325817,0.0012003
 9,0.01045201,0.00309867,-0.00017789,-0.00061280,-0.00085915,0.00182505
 ,-0.00017490,0.00008315,-0.00025856,-0.00000607,-0.00002207,-0.0001681
 6,0.00001334,-0.00028908,-0.00011240,-0.00199279,0.00181896,-0.0019217
 5,-0.02604640,-0.02417602,-0.02124081,-0.10261914,-0.07964846,-0.09854
 788,0.00002600,0.00009732,-0.00010622,-0.00023367,-0.00022880,-0.00007
 118,0.00038487,0.00126237,-0.00009834,0.00016268,0.00020798,-0.0002279
 8,0.00006516,-0.00003015,0.00000053,0.00004697,-0.00006468,0.00012096,
 0.00007629,0.00001275,-0.00000447,-0.00010799,0.00002893,-0.00002635,0
 .00300241,-0.00454384,-0.00334990,-0.00145176,0.00285855,0.00200152,0.
 12005259,0.09713541,0.12116343\\0.00000170,-0.00000413,-0.00000175,0.0
 0000015,-0.00000194,-0.00000002,0.00000057,-0.00000105,-0.00000074,0.0
 0000191,0.00000217,-0.00000308,0.00000089,0.00000448,-0.00000145,-0.00
 000105,0.00000321,0.00000215,-0.00000123,-0.00000048,0.00000231,-0.000
 00142,0.00000012,0.00000176,-0.00000242,-0.00000335,0.00000276,0.00000
 065,-0.00000186,-0.00000128,0.00000056,-0.00000188,-0.00000070,0.00000
 099,-0.00000038,-0.00000090,0.00000053,-0.00000190,-0.00000089,0.00000
 114,0.00000116,-0.00000297,0.00000050,0.00000326,-0.00000126,-0.000000
 61,0.00000234,0.00000207,-0.00000061,0.00000065,0.00000120,-0.00000052
 ,-0.00000005,0.00000068,-0.00000088,0.00000065,0.00000076,-0.00000084,
 -0.00000102,0.00000135\\\@


 EDUCATION WITHOUT COMMON SENSE IS A LOAD OF BOOKS ON THE BACK OF AN ASS.
 Job cpu time:       0 days  0 hours 14 minutes 28.9 seconds.
 Elapsed time:       0 days  0 hours  0 minutes 56.1 seconds.
 File lengths (MBytes):  RWF=     79 Int=      0 D2E=      0 Chk=      4 Scr=      1
 Normal termination of Gaussian 16 at Wed Sep 20 15:24:50 2023.
